V -t * -v 1.0a5 -a 0
A -t * -n 1 -p 0 -o 0x7fffffff -c 30 -a 1
A -t * -h 1 -m 1073741823 -s 0
n -t * -a 0 -s 0 -S UP -v circle -c black -i black
n -t * -a 1 -s 1 -S UP -v circle -c black -i black
n -t * -a 2 -s 2 -S UP -v circle -c black -i black
n -t * -a 3 -s 3 -S UP -v circle -c black -i black
l -t * -s 0 -d 2 -S UP -r 100000000 -D 0.01 -c black
l -t * -s 1 -d 2 -S UP -r 50000000 -D 0.01 -c black
l -t * -s 2 -d 3 -S UP -r 1005000000 -D 0.01 -c black
+ -t 0.1 -s 0 -d 2 -p cbr -e 1000 -c 0 -i 0 -a 0 -x {0.0 3.0 0 ------- null}
- -t 0.1 -s 0 -d 2 -p cbr -e 1000 -c 0 -i 0 -a 0 -x {0.0 3.0 0 ------- null}
h -t 0.1 -s 0 -d 2 -p cbr -e 1000 -c 0 -i 0 -a 0 -x {0.0 3.0 -1 ------- null}
+ -t 0.1 -s 0 -d 2 -p cbr -e 1000 -c 0 -i 1 -a 0 -x {0.0 3.0 1 ------- null}
+ -t 0.1 -s 0 -d 2 -p cbr -e 1000 -c 0 -i 2 -a 0 -x {0.0 3.0 2 ------- null}
+ -t 0.1 -s 0 -d 2 -p cbr -e 1000 -c 0 -i 3 -a 0 -x {0.0 3.0 3 ------- null}
+ -t 0.1 -s 0 -d 2 -p cbr -e 1000 -c 0 -i 4 -a 0 -x {0.0 3.0 4 ------- null}
+ -t 0.1 -s 0 -d 2 -p cbr -e 1000 -c 0 -i 5 -a 0 -x {0.0 3.0 5 ------- null}
+ -t 0.1 -s 0 -d 2 -p cbr -e 1000 -c 0 -i 6 -a 0 -x {0.0 3.0 6 ------- null}
+ -t 0.1 -s 0 -d 2 -p cbr -e 1000 -c 0 -i 7 -a 0 -x {0.0 3.0 7 ------- null}
+ -t 0.1 -s 0 -d 2 -p cbr -e 1000 -c 0 -i 8 -a 0 -x {0.0 3.0 8 ------- null}
+ -t 0.1 -s 0 -d 2 -p cbr -e 1000 -c 0 -i 9 -a 0 -x {0.0 3.0 9 ------- null}
+ -t 0.1 -s 0 -d 2 -p cbr -e 1000 -c 0 -i 10 -a 0 -x {0.0 3.0 10 ------- null}
d -t 0.1 -s 0 -d 2 -p cbr -e 1000 -c 0 -i 10 -a 0 -x {0.0 3.0 10 ------- null}
+ -t 0.1 -s 0 -d 2 -p cbr -e 1000 -c 0 -i 11 -a 0 -x {0.0 3.0 11 ------- null}
d -t 0.1 -s 0 -d 2 -p cbr -e 1000 -c 0 -i 11 -a 0 -x {0.0 3.0 11 ------- null}
+ -t 0.1 -s 0 -d 2 -p cbr -e 1000 -c 0 -i 12 -a 0 -x {0.0 3.0 12 ------- null}
d -t 0.1 -s 0 -d 2 -p cbr -e 1000 -c 0 -i 12 -a 0 -x {0.0 3.0 12 ------- null}
+ -t 0.1 -s 0 -d 2 -p cbr -e 1000 -c 0 -i 13 -a 0 -x {0.0 3.0 13 ------- null}
d -t 0.1 -s 0 -d 2 -p cbr -e 1000 -c 0 -i 13 -a 0 -x {0.0 3.0 13 ------- null}
+ -t 0.1 -s 0 -d 2 -p cbr -e 1000 -c 0 -i 14 -a 0 -x {0.0 3.0 14 ------- null}
d -t 0.1 -s 0 -d 2 -p cbr -e 1000 -c 0 -i 14 -a 0 -x {0.0 3.0 14 ------- null}
+ -t 0.1 -s 0 -d 2 -p cbr -e 1000 -c 0 -i 15 -a 0 -x {0.0 3.0 15 ------- null}
d -t 0.1 -s 0 -d 2 -p cbr -e 1000 -c 0 -i 15 -a 0 -x {0.0 3.0 15 ------- null}
+ -t 0.1 -s 0 -d 2 -p cbr -e 1000 -c 0 -i 16 -a 0 -x {0.0 3.0 16 ------- null}
d -t 0.1 -s 0 -d 2 -p cbr -e 1000 -c 0 -i 16 -a 0 -x {0.0 3.0 16 ------- null}
+ -t 0.1 -s 0 -d 2 -p cbr -e 1000 -c 0 -i 17 -a 0 -x {0.0 3.0 17 ------- null}
d -t 0.1 -s 0 -d 2 -p cbr -e 1000 -c 0 -i 17 -a 0 -x {0.0 3.0 17 ------- null}
+ -t 0.1 -s 0 -d 2 -p cbr -e 1000 -c 0 -i 18 -a 0 -x {0.0 3.0 18 ------- null}
d -t 0.1 -s 0 -d 2 -p cbr -e 1000 -c 0 -i 18 -a 0 -x {0.0 3.0 18 ------- null}
+ -t 0.1 -s 0 -d 2 -p cbr -e 1000 -c 0 -i 19 -a 0 -x {0.0 3.0 19 ------- null}
d -t 0.1 -s 0 -d 2 -p cbr -e 1000 -c 0 -i 19 -a 0 -x {0.0 3.0 19 ------- null}
+ -t 0.1 -s 0 -d 2 -p cbr -e 1000 -c 0 -i 20 -a 0 -x {0.0 3.0 20 ------- null}
d -t 0.1 -s 0 -d 2 -p cbr -e 1000 -c 0 -i 20 -a 0 -x {0.0 3.0 20 ------- null}
+ -t 0.1 -s 0 -d 2 -p cbr -e 1000 -c 0 -i 21 -a 0 -x {0.0 3.0 21 ------- null}
d -t 0.1 -s 0 -d 2 -p cbr -e 1000 -c 0 -i 21 -a 0 -x {0.0 3.0 21 ------- null}
+ -t 0.1 -s 0 -d 2 -p cbr -e 1000 -c 0 -i 22 -a 0 -x {0.0 3.0 22 ------- null}
d -t 0.1 -s 0 -d 2 -p cbr -e 1000 -c 0 -i 22 -a 0 -x {0.0 3.0 22 ------- null}
+ -t 0.1 -s 0 -d 2 -p cbr -e 1000 -c 0 -i 23 -a 0 -x {0.0 3.0 23 ------- null}
d -t 0.1 -s 0 -d 2 -p cbr -e 1000 -c 0 -i 23 -a 0 -x {0.0 3.0 23 ------- null}
+ -t 0.1 -s 0 -d 2 -p cbr -e 1000 -c 0 -i 24 -a 0 -x {0.0 3.0 24 ------- null}
d -t 0.1 -s 0 -d 2 -p cbr -e 1000 -c 0 -i 24 -a 0 -x {0.0 3.0 24 ------- null}
+ -t 0.1 -s 0 -d 2 -p cbr -e 1000 -c 0 -i 25 -a 0 -x {0.0 3.0 25 ------- null}
d -t 0.1 -s 0 -d 2 -p cbr -e 1000 -c 0 -i 25 -a 0 -x {0.0 3.0 25 ------- null}
+ -t 0.1 -s 0 -d 2 -p cbr -e 1000 -c 0 -i 26 -a 0 -x {0.0 3.0 26 ------- null}
d -t 0.1 -s 0 -d 2 -p cbr -e 1000 -c 0 -i 26 -a 0 -x {0.0 3.0 26 ------- null}
+ -t 0.1 -s 0 -d 2 -p cbr -e 1000 -c 0 -i 27 -a 0 -x {0.0 3.0 27 ------- null}
d -t 0.1 -s 0 -d 2 -p cbr -e 1000 -c 0 -i 27 -a 0 -x {0.0 3.0 27 ------- null}
+ -t 0.1 -s 0 -d 2 -p cbr -e 1000 -c 0 -i 28 -a 0 -x {0.0 3.0 28 ------- null}
d -t 0.1 -s 0 -d 2 -p cbr -e 1000 -c 0 -i 28 -a 0 -x {0.0 3.0 28 ------- null}
+ -t 0.1 -s 0 -d 2 -p cbr -e 1000 -c 0 -i 29 -a 0 -x {0.0 3.0 29 ------- null}
d -t 0.1 -s 0 -d 2 -p cbr -e 1000 -c 0 -i 29 -a 0 -x {0.0 3.0 29 ------- null}
+ -t 0.1 -s 0 -d 2 -p cbr -e 1000 -c 0 -i 30 -a 0 -x {0.0 3.0 30 ------- null}
d -t 0.1 -s 0 -d 2 -p cbr -e 1000 -c 0 -i 30 -a 0 -x {0.0 3.0 30 ------- null}
+ -t 0.1 -s 0 -d 2 -p cbr -e 1000 -c 0 -i 31 -a 0 -x {0.0 3.0 31 ------- null}
d -t 0.1 -s 0 -d 2 -p cbr -e 1000 -c 0 -i 31 -a 0 -x {0.0 3.0 31 ------- null}
+ -t 0.1 -s 0 -d 2 -p cbr -e 1000 -c 0 -i 32 -a 0 -x {0.0 3.0 32 ------- null}
d -t 0.1 -s 0 -d 2 -p cbr -e 1000 -c 0 -i 32 -a 0 -x {0.0 3.0 32 ------- null}
+ -t 0.1 -s 0 -d 2 -p cbr -e 1000 -c 0 -i 33 -a 0 -x {0.0 3.0 33 ------- null}
d -t 0.1 -s 0 -d 2 -p cbr -e 1000 -c 0 -i 33 -a 0 -x {0.0 3.0 33 ------- null}
+ -t 0.1 -s 0 -d 2 -p cbr -e 1000 -c 0 -i 34 -a 0 -x {0.0 3.0 34 ------- null}
d -t 0.1 -s 0 -d 2 -p cbr -e 1000 -c 0 -i 34 -a 0 -x {0.0 3.0 34 ------- null}
+ -t 0.1 -s 0 -d 2 -p cbr -e 1000 -c 0 -i 35 -a 0 -x {0.0 3.0 35 ------- null}
d -t 0.1 -s 0 -d 2 -p cbr -e 1000 -c 0 -i 35 -a 0 -x {0.0 3.0 35 ------- null}
+ -t 0.1 -s 0 -d 2 -p cbr -e 1000 -c 0 -i 36 -a 0 -x {0.0 3.0 36 ------- null}
d -t 0.1 -s 0 -d 2 -p cbr -e 1000 -c 0 -i 36 -a 0 -x {0.0 3.0 36 ------- null}
+ -t 0.1 -s 0 -d 2 -p cbr -e 1000 -c 0 -i 37 -a 0 -x {0.0 3.0 37 ------- null}
d -t 0.1 -s 0 -d 2 -p cbr -e 1000 -c 0 -i 37 -a 0 -x {0.0 3.0 37 ------- null}
+ -t 0.1 -s 0 -d 2 -p cbr -e 1000 -c 0 -i 38 -a 0 -x {0.0 3.0 38 ------- null}
d -t 0.1 -s 0 -d 2 -p cbr -e 1000 -c 0 -i 38 -a 0 -x {0.0 3.0 38 ------- null}
+ -t 0.1 -s 0 -d 2 -p cbr -e 1000 -c 0 -i 39 -a 0 -x {0.0 3.0 39 ------- null}
d -t 0.1 -s 0 -d 2 -p cbr -e 1000 -c 0 -i 39 -a 0 -x {0.0 3.0 39 ------- null}
+ -t 0.1 -s 0 -d 2 -p cbr -e 1000 -c 0 -i 40 -a 0 -x {0.0 3.0 40 ------- null}
d -t 0.1 -s 0 -d 2 -p cbr -e 1000 -c 0 -i 40 -a 0 -x {0.0 3.0 40 ------- null}
+ -t 0.1 -s 0 -d 2 -p cbr -e 1000 -c 0 -i 41 -a 0 -x {0.0 3.0 41 ------- null}
d -t 0.1 -s 0 -d 2 -p cbr -e 1000 -c 0 -i 41 -a 0 -x {0.0 3.0 41 ------- null}
+ -t 0.1 -s 0 -d 2 -p cbr -e 1000 -c 0 -i 42 -a 0 -x {0.0 3.0 42 ------- null}
d -t 0.1 -s 0 -d 2 -p cbr -e 1000 -c 0 -i 42 -a 0 -x {0.0 3.0 42 ------- null}
+ -t 0.1 -s 0 -d 2 -p cbr -e 1000 -c 0 -i 43 -a 0 -x {0.0 3.0 43 ------- null}
d -t 0.1 -s 0 -d 2 -p cbr -e 1000 -c 0 -i 43 -a 0 -x {0.0 3.0 43 ------- null}
+ -t 0.1 -s 0 -d 2 -p cbr -e 1000 -c 0 -i 44 -a 0 -x {0.0 3.0 44 ------- null}
d -t 0.1 -s 0 -d 2 -p cbr -e 1000 -c 0 -i 44 -a 0 -x {0.0 3.0 44 ------- null}
+ -t 0.1 -s 0 -d 2 -p cbr -e 1000 -c 0 -i 45 -a 0 -x {0.0 3.0 45 ------- null}
d -t 0.1 -s 0 -d 2 -p cbr -e 1000 -c 0 -i 45 -a 0 -x {0.0 3.0 45 ------- null}
+ -t 0.1 -s 0 -d 2 -p cbr -e 1000 -c 0 -i 46 -a 0 -x {0.0 3.0 46 ------- null}
d -t 0.1 -s 0 -d 2 -p cbr -e 1000 -c 0 -i 46 -a 0 -x {0.0 3.0 46 ------- null}
+ -t 0.1 -s 0 -d 2 -p cbr -e 1000 -c 0 -i 47 -a 0 -x {0.0 3.0 47 ------- null}
d -t 0.1 -s 0 -d 2 -p cbr -e 1000 -c 0 -i 47 -a 0 -x {0.0 3.0 47 ------- null}
+ -t 0.1 -s 0 -d 2 -p cbr -e 1000 -c 0 -i 48 -a 0 -x {0.0 3.0 48 ------- null}
d -t 0.1 -s 0 -d 2 -p cbr -e 1000 -c 0 -i 48 -a 0 -x {0.0 3.0 48 ------- null}
+ -t 0.1 -s 0 -d 2 -p cbr -e 1000 -c 0 -i 49 -a 0 -x {0.0 3.0 49 ------- null}
d -t 0.1 -s 0 -d 2 -p cbr -e 1000 -c 0 -i 49 -a 0 -x {0.0 3.0 49 ------- null}
- -t 0.10008 -s 0 -d 2 -p cbr -e 1000 -c 0 -i 1 -a 0 -x {0.0 3.0 1 ------- null}
h -t 0.10008 -s 0 -d 2 -p cbr -e 1000 -c 0 -i 1 -a 0 -x {0.0 3.0 -1 ------- null}
- -t 0.10016 -s 0 -d 2 -p cbr -e 1000 -c 0 -i 2 -a 0 -x {0.0 3.0 2 ------- null}
h -t 0.10016 -s 0 -d 2 -p cbr -e 1000 -c 0 -i 2 -a 0 -x {0.0 3.0 -1 ------- null}
- -t 0.10024 -s 0 -d 2 -p cbr -e 1000 -c 0 -i 3 -a 0 -x {0.0 3.0 3 ------- null}
h -t 0.10024 -s 0 -d 2 -p cbr -e 1000 -c 0 -i 3 -a 0 -x {0.0 3.0 -1 ------- null}
- -t 0.10032 -s 0 -d 2 -p cbr -e 1000 -c 0 -i 4 -a 0 -x {0.0 3.0 4 ------- null}
h -t 0.10032 -s 0 -d 2 -p cbr -e 1000 -c 0 -i 4 -a 0 -x {0.0 3.0 -1 ------- null}
- -t 0.1004 -s 0 -d 2 -p cbr -e 1000 -c 0 -i 5 -a 0 -x {0.0 3.0 5 ------- null}
h -t 0.1004 -s 0 -d 2 -p cbr -e 1000 -c 0 -i 5 -a 0 -x {0.0 3.0 -1 ------- null}
- -t 0.10048 -s 0 -d 2 -p cbr -e 1000 -c 0 -i 6 -a 0 -x {0.0 3.0 6 ------- null}
h -t 0.10048 -s 0 -d 2 -p cbr -e 1000 -c 0 -i 6 -a 0 -x {0.0 3.0 -1 ------- null}
- -t 0.10056 -s 0 -d 2 -p cbr -e 1000 -c 0 -i 7 -a 0 -x {0.0 3.0 7 ------- null}
h -t 0.10056 -s 0 -d 2 -p cbr -e 1000 -c 0 -i 7 -a 0 -x {0.0 3.0 -1 ------- null}
- -t 0.10064 -s 0 -d 2 -p cbr -e 1000 -c 0 -i 8 -a 0 -x {0.0 3.0 8 ------- null}
h -t 0.10064 -s 0 -d 2 -p cbr -e 1000 -c 0 -i 8 -a 0 -x {0.0 3.0 -1 ------- null}
- -t 0.10072 -s 0 -d 2 -p cbr -e 1000 -c 0 -i 9 -a 0 -x {0.0 3.0 9 ------- null}
h -t 0.10072 -s 0 -d 2 -p cbr -e 1000 -c 0 -i 9 -a 0 -x {0.0 3.0 -1 ------- null}
r -t 0.11008 -s 0 -d 2 -p cbr -e 1000 -c 0 -i 0 -a 0 -x {0.0 3.0 0 ------- null}
+ -t 0.11008 -s 2 -d 3 -p cbr -e 1000 -c 0 -i 0 -a 0 -x {0.0 3.0 0 ------- null}
- -t 0.11008 -s 2 -d 3 -p cbr -e 1000 -c 0 -i 0 -a 0 -x {0.0 3.0 0 ------- null}
h -t 0.11008 -s 2 -d 3 -p cbr -e 1000 -c 0 -i 0 -a 0 -x {0.0 3.0 -1 ------- null}
r -t 0.11016 -s 0 -d 2 -p cbr -e 1000 -c 0 -i 1 -a 0 -x {0.0 3.0 1 ------- null}
+ -t 0.11016 -s 2 -d 3 -p cbr -e 1000 -c 0 -i 1 -a 0 -x {0.0 3.0 1 ------- null}
- -t 0.11016 -s 2 -d 3 -p cbr -e 1000 -c 0 -i 1 -a 0 -x {0.0 3.0 1 ------- null}
h -t 0.11016 -s 2 -d 3 -p cbr -e 1000 -c 0 -i 1 -a 0 -x {0.0 3.0 -1 ------- null}
r -t 0.11024 -s 0 -d 2 -p cbr -e 1000 -c 0 -i 2 -a 0 -x {0.0 3.0 2 ------- null}
+ -t 0.11024 -s 2 -d 3 -p cbr -e 1000 -c 0 -i 2 -a 0 -x {0.0 3.0 2 ------- null}
- -t 0.11024 -s 2 -d 3 -p cbr -e 1000 -c 0 -i 2 -a 0 -x {0.0 3.0 2 ------- null}
h -t 0.11024 -s 2 -d 3 -p cbr -e 1000 -c 0 -i 2 -a 0 -x {0.0 3.0 -1 ------- null}
r -t 0.11032 -s 0 -d 2 -p cbr -e 1000 -c 0 -i 3 -a 0 -x {0.0 3.0 3 ------- null}
+ -t 0.11032 -s 2 -d 3 -p cbr -e 1000 -c 0 -i 3 -a 0 -x {0.0 3.0 3 ------- null}
- -t 0.11032 -s 2 -d 3 -p cbr -e 1000 -c 0 -i 3 -a 0 -x {0.0 3.0 3 ------- null}
h -t 0.11032 -s 2 -d 3 -p cbr -e 1000 -c 0 -i 3 -a 0 -x {0.0 3.0 -1 ------- null}
r -t 0.1104 -s 0 -d 2 -p cbr -e 1000 -c 0 -i 4 -a 0 -x {0.0 3.0 4 ------- null}
+ -t 0.1104 -s 2 -d 3 -p cbr -e 1000 -c 0 -i 4 -a 0 -x {0.0 3.0 4 ------- null}
- -t 0.1104 -s 2 -d 3 -p cbr -e 1000 -c 0 -i 4 -a 0 -x {0.0 3.0 4 ------- null}
h -t 0.1104 -s 2 -d 3 -p cbr -e 1000 -c 0 -i 4 -a 0 -x {0.0 3.0 -1 ------- null}
r -t 0.11048 -s 0 -d 2 -p cbr -e 1000 -c 0 -i 5 -a 0 -x {0.0 3.0 5 ------- null}
+ -t 0.11048 -s 2 -d 3 -p cbr -e 1000 -c 0 -i 5 -a 0 -x {0.0 3.0 5 ------- null}
- -t 0.11048 -s 2 -d 3 -p cbr -e 1000 -c 0 -i 5 -a 0 -x {0.0 3.0 5 ------- null}
h -t 0.11048 -s 2 -d 3 -p cbr -e 1000 -c 0 -i 5 -a 0 -x {0.0 3.0 -1 ------- null}
r -t 0.11056 -s 0 -d 2 -p cbr -e 1000 -c 0 -i 6 -a 0 -x {0.0 3.0 6 ------- null}
+ -t 0.11056 -s 2 -d 3 -p cbr -e 1000 -c 0 -i 6 -a 0 -x {0.0 3.0 6 ------- null}
- -t 0.11056 -s 2 -d 3 -p cbr -e 1000 -c 0 -i 6 -a 0 -x {0.0 3.0 6 ------- null}
h -t 0.11056 -s 2 -d 3 -p cbr -e 1000 -c 0 -i 6 -a 0 -x {0.0 3.0 -1 ------- null}
r -t 0.11064 -s 0 -d 2 -p cbr -e 1000 -c 0 -i 7 -a 0 -x {0.0 3.0 7 ------- null}
+ -t 0.11064 -s 2 -d 3 -p cbr -e 1000 -c 0 -i 7 -a 0 -x {0.0 3.0 7 ------- null}
- -t 0.11064 -s 2 -d 3 -p cbr -e 1000 -c 0 -i 7 -a 0 -x {0.0 3.0 7 ------- null}
h -t 0.11064 -s 2 -d 3 -p cbr -e 1000 -c 0 -i 7 -a 0 -x {0.0 3.0 -1 ------- null}
r -t 0.11072 -s 0 -d 2 -p cbr -e 1000 -c 0 -i 8 -a 0 -x {0.0 3.0 8 ------- null}
+ -t 0.11072 -s 2 -d 3 -p cbr -e 1000 -c 0 -i 8 -a 0 -x {0.0 3.0 8 ------- null}
- -t 0.11072 -s 2 -d 3 -p cbr -e 1000 -c 0 -i 8 -a 0 -x {0.0 3.0 8 ------- null}
h -t 0.11072 -s 2 -d 3 -p cbr -e 1000 -c 0 -i 8 -a 0 -x {0.0 3.0 -1 ------- null}
r -t 0.1108 -s 0 -d 2 -p cbr -e 1000 -c 0 -i 9 -a 0 -x {0.0 3.0 9 ------- null}
+ -t 0.1108 -s 2 -d 3 -p cbr -e 1000 -c 0 -i 9 -a 0 -x {0.0 3.0 9 ------- null}
- -t 0.1108 -s 2 -d 3 -p cbr -e 1000 -c 0 -i 9 -a 0 -x {0.0 3.0 9 ------- null}
h -t 0.1108 -s 2 -d 3 -p cbr -e 1000 -c 0 -i 9 -a 0 -x {0.0 3.0 -1 ------- null}
r -t 0.120087960199005 -s 2 -d 3 -p cbr -e 1000 -c 0 -i 0 -a 0 -x {0.0 3.0 0 ------- null}
r -t 0.120167960199005 -s 2 -d 3 -p cbr -e 1000 -c 0 -i 1 -a 0 -x {0.0 3.0 1 ------- null}
r -t 0.120247960199005 -s 2 -d 3 -p cbr -e 1000 -c 0 -i 2 -a 0 -x {0.0 3.0 2 ------- null}
r -t 0.120327960199005 -s 2 -d 3 -p cbr -e 1000 -c 0 -i 3 -a 0 -x {0.0 3.0 3 ------- null}
r -t 0.120407960199005 -s 2 -d 3 -p cbr -e 1000 -c 0 -i 4 -a 0 -x {0.0 3.0 4 ------- null}
r -t 0.120487960199005 -s 2 -d 3 -p cbr -e 1000 -c 0 -i 5 -a 0 -x {0.0 3.0 5 ------- null}
r -t 0.120567960199005 -s 2 -d 3 -p cbr -e 1000 -c 0 -i 6 -a 0 -x {0.0 3.0 6 ------- null}
r -t 0.120647960199005 -s 2 -d 3 -p cbr -e 1000 -c 0 -i 7 -a 0 -x {0.0 3.0 7 ------- null}
r -t 0.120727960199005 -s 2 -d 3 -p cbr -e 1000 -c 0 -i 8 -a 0 -x {0.0 3.0 8 ------- null}
r -t 0.120807960199005 -s 2 -d 3 -p cbr -e 1000 -c 0 -i 9 -a 0 -x {0.0 3.0 9 ------- null}
+ -t 0.2 -s 1 -d 2 -p cbr -e 210 -c 0 -i 50 -a 0 -x {1.0 3.0 0 ------- null}
- -t 0.2 -s 1 -d 2 -p cbr -e 210 -c 0 -i 50 -a 0 -x {1.0 3.0 0 ------- null}
h -t 0.2 -s 1 -d 2 -p cbr -e 210 -c 0 -i 50 -a 0 -x {1.0 3.0 -1 ------- null}
+ -t 0.20375 -s 1 -d 2 -p cbr -e 210 -c 0 -i 51 -a 0 -x {1.0 3.0 1 ------- null}
- -t 0.20375 -s 1 -d 2 -p cbr -e 210 -c 0 -i 51 -a 0 -x {1.0 3.0 1 ------- null}
h -t 0.20375 -s 1 -d 2 -p cbr -e 210 -c 0 -i 51 -a 0 -x {1.0 3.0 -1 ------- null}
+ -t 0.2075 -s 1 -d 2 -p cbr -e 210 -c 0 -i 52 -a 0 -x {1.0 3.0 2 ------- null}
- -t 0.2075 -s 1 -d 2 -p cbr -e 210 -c 0 -i 52 -a 0 -x {1.0 3.0 2 ------- null}
h -t 0.2075 -s 1 -d 2 -p cbr -e 210 -c 0 -i 52 -a 0 -x {1.0 3.0 -1 ------- null}
r -t 0.2100336 -s 1 -d 2 -p cbr -e 210 -c 0 -i 50 -a 0 -x {1.0 3.0 0 ------- null}
+ -t 0.2100336 -s 2 -d 3 -p cbr -e 210 -c 0 -i 50 -a 0 -x {1.0 3.0 0 ------- null}
- -t 0.2100336 -s 2 -d 3 -p cbr -e 210 -c 0 -i 50 -a 0 -x {1.0 3.0 0 ------- null}
h -t 0.2100336 -s 2 -d 3 -p cbr -e 210 -c 0 -i 50 -a 0 -x {1.0 3.0 -1 ------- null}
+ -t 0.21125 -s 1 -d 2 -p cbr -e 210 -c 0 -i 53 -a 0 -x {1.0 3.0 3 ------- null}
- -t 0.21125 -s 1 -d 2 -p cbr -e 210 -c 0 -i 53 -a 0 -x {1.0 3.0 3 ------- null}
h -t 0.21125 -s 1 -d 2 -p cbr -e 210 -c 0 -i 53 -a 0 -x {1.0 3.0 -1 ------- null}
r -t 0.2137836 -s 1 -d 2 -p cbr -e 210 -c 0 -i 51 -a 0 -x {1.0 3.0 1 ------- null}
+ -t 0.2137836 -s 2 -d 3 -p cbr -e 210 -c 0 -i 51 -a 0 -x {1.0 3.0 1 ------- null}
- -t 0.2137836 -s 2 -d 3 -p cbr -e 210 -c 0 -i 51 -a 0 -x {1.0 3.0 1 ------- null}
h -t 0.2137836 -s 2 -d 3 -p cbr -e 210 -c 0 -i 51 -a 0 -x {1.0 3.0 -1 ------- null}
+ -t 0.215 -s 1 -d 2 -p cbr -e 210 -c 0 -i 54 -a 0 -x {1.0 3.0 4 ------- null}
- -t 0.215 -s 1 -d 2 -p cbr -e 210 -c 0 -i 54 -a 0 -x {1.0 3.0 4 ------- null}
h -t 0.215 -s 1 -d 2 -p cbr -e 210 -c 0 -i 54 -a 0 -x {1.0 3.0 -1 ------- null}
r -t 0.2175336 -s 1 -d 2 -p cbr -e 210 -c 0 -i 52 -a 0 -x {1.0 3.0 2 ------- null}
+ -t 0.2175336 -s 2 -d 3 -p cbr -e 210 -c 0 -i 52 -a 0 -x {1.0 3.0 2 ------- null}
- -t 0.2175336 -s 2 -d 3 -p cbr -e 210 -c 0 -i 52 -a 0 -x {1.0 3.0 2 ------- null}
h -t 0.2175336 -s 2 -d 3 -p cbr -e 210 -c 0 -i 52 -a 0 -x {1.0 3.0 -1 ------- null}
+ -t 0.21875 -s 1 -d 2 -p cbr -e 210 -c 0 -i 55 -a 0 -x {1.0 3.0 5 ------- null}
- -t 0.21875 -s 1 -d 2 -p cbr -e 210 -c 0 -i 55 -a 0 -x {1.0 3.0 5 ------- null}
h -t 0.21875 -s 1 -d 2 -p cbr -e 210 -c 0 -i 55 -a 0 -x {1.0 3.0 -1 ------- null}
r -t 0.220035271641791 -s 2 -d 3 -p cbr -e 210 -c 0 -i 50 -a 0 -x {1.0 3.0 0 ------- null}
r -t 0.2212836 -s 1 -d 2 -p cbr -e 210 -c 0 -i 53 -a 0 -x {1.0 3.0 3 ------- null}
+ -t 0.2212836 -s 2 -d 3 -p cbr -e 210 -c 0 -i 53 -a 0 -x {1.0 3.0 3 ------- null}
- -t 0.2212836 -s 2 -d 3 -p cbr -e 210 -c 0 -i 53 -a 0 -x {1.0 3.0 3 ------- null}
h -t 0.2212836 -s 2 -d 3 -p cbr -e 210 -c 0 -i 53 -a 0 -x {1.0 3.0 -1 ------- null}
+ -t 0.2225 -s 1 -d 2 -p cbr -e 210 -c 0 -i 56 -a 0 -x {1.0 3.0 6 ------- null}
- -t 0.2225 -s 1 -d 2 -p cbr -e 210 -c 0 -i 56 -a 0 -x {1.0 3.0 6 ------- null}
h -t 0.2225 -s 1 -d 2 -p cbr -e 210 -c 0 -i 56 -a 0 -x {1.0 3.0 -1 ------- null}
r -t 0.223785271641791 -s 2 -d 3 -p cbr -e 210 -c 0 -i 51 -a 0 -x {1.0 3.0 1 ------- null}
r -t 0.2250336 -s 1 -d 2 -p cbr -e 210 -c 0 -i 54 -a 0 -x {1.0 3.0 4 ------- null}
+ -t 0.2250336 -s 2 -d 3 -p cbr -e 210 -c 0 -i 54 -a 0 -x {1.0 3.0 4 ------- null}
- -t 0.2250336 -s 2 -d 3 -p cbr -e 210 -c 0 -i 54 -a 0 -x {1.0 3.0 4 ------- null}
h -t 0.2250336 -s 2 -d 3 -p cbr -e 210 -c 0 -i 54 -a 0 -x {1.0 3.0 -1 ------- null}
+ -t 0.22625 -s 1 -d 2 -p cbr -e 210 -c 0 -i 57 -a 0 -x {1.0 3.0 7 ------- null}
- -t 0.22625 -s 1 -d 2 -p cbr -e 210 -c 0 -i 57 -a 0 -x {1.0 3.0 7 ------- null}
h -t 0.22625 -s 1 -d 2 -p cbr -e 210 -c 0 -i 57 -a 0 -x {1.0 3.0 -1 ------- null}
r -t 0.227535271641791 -s 2 -d 3 -p cbr -e 210 -c 0 -i 52 -a 0 -x {1.0 3.0 2 ------- null}
r -t 0.2287836 -s 1 -d 2 -p cbr -e 210 -c 0 -i 55 -a 0 -x {1.0 3.0 5 ------- null}
+ -t 0.2287836 -s 2 -d 3 -p cbr -e 210 -c 0 -i 55 -a 0 -x {1.0 3.0 5 ------- null}
- -t 0.2287836 -s 2 -d 3 -p cbr -e 210 -c 0 -i 55 -a 0 -x {1.0 3.0 5 ------- null}
h -t 0.2287836 -s 2 -d 3 -p cbr -e 210 -c 0 -i 55 -a 0 -x {1.0 3.0 -1 ------- null}
+ -t 0.23 -s 1 -d 2 -p cbr -e 210 -c 0 -i 58 -a 0 -x {1.0 3.0 8 ------- null}
- -t 0.23 -s 1 -d 2 -p cbr -e 210 -c 0 -i 58 -a 0 -x {1.0 3.0 8 ------- null}
h -t 0.23 -s 1 -d 2 -p cbr -e 210 -c 0 -i 58 -a 0 -x {1.0 3.0 -1 ------- null}
r -t 0.231285271641791 -s 2 -d 3 -p cbr -e 210 -c 0 -i 53 -a 0 -x {1.0 3.0 3 ------- null}
r -t 0.2325336 -s 1 -d 2 -p cbr -e 210 -c 0 -i 56 -a 0 -x {1.0 3.0 6 ------- null}
+ -t 0.2325336 -s 2 -d 3 -p cbr -e 210 -c 0 -i 56 -a 0 -x {1.0 3.0 6 ------- null}
- -t 0.2325336 -s 2 -d 3 -p cbr -e 210 -c 0 -i 56 -a 0 -x {1.0 3.0 6 ------- null}
h -t 0.2325336 -s 2 -d 3 -p cbr -e 210 -c 0 -i 56 -a 0 -x {1.0 3.0 -1 ------- null}
+ -t 0.23375 -s 1 -d 2 -p cbr -e 210 -c 0 -i 59 -a 0 -x {1.0 3.0 9 ------- null}
- -t 0.23375 -s 1 -d 2 -p cbr -e 210 -c 0 -i 59 -a 0 -x {1.0 3.0 9 ------- null}
h -t 0.23375 -s 1 -d 2 -p cbr -e 210 -c 0 -i 59 -a 0 -x {1.0 3.0 -1 ------- null}
r -t 0.235035271641791 -s 2 -d 3 -p cbr -e 210 -c 0 -i 54 -a 0 -x {1.0 3.0 4 ------- null}
r -t 0.2362836 -s 1 -d 2 -p cbr -e 210 -c 0 -i 57 -a 0 -x {1.0 3.0 7 ------- null}
+ -t 0.2362836 -s 2 -d 3 -p cbr -e 210 -c 0 -i 57 -a 0 -x {1.0 3.0 7 ------- null}
- -t 0.2362836 -s 2 -d 3 -p cbr -e 210 -c 0 -i 57 -a 0 -x {1.0 3.0 7 ------- null}
h -t 0.2362836 -s 2 -d 3 -p cbr -e 210 -c 0 -i 57 -a 0 -x {1.0 3.0 -1 ------- null}
+ -t 0.2375 -s 1 -d 2 -p cbr -e 210 -c 0 -i 60 -a 0 -x {1.0 3.0 10 ------- null}
- -t 0.2375 -s 1 -d 2 -p cbr -e 210 -c 0 -i 60 -a 0 -x {1.0 3.0 10 ------- null}
h -t 0.2375 -s 1 -d 2 -p cbr -e 210 -c 0 -i 60 -a 0 -x {1.0 3.0 -1 ------- null}
r -t 0.238785271641791 -s 2 -d 3 -p cbr -e 210 -c 0 -i 55 -a 0 -x {1.0 3.0 5 ------- null}
r -t 0.2400336 -s 1 -d 2 -p cbr -e 210 -c 0 -i 58 -a 0 -x {1.0 3.0 8 ------- null}
+ -t 0.2400336 -s 2 -d 3 -p cbr -e 210 -c 0 -i 58 -a 0 -x {1.0 3.0 8 ------- null}
- -t 0.2400336 -s 2 -d 3 -p cbr -e 210 -c 0 -i 58 -a 0 -x {1.0 3.0 8 ------- null}
h -t 0.2400336 -s 2 -d 3 -p cbr -e 210 -c 0 -i 58 -a 0 -x {1.0 3.0 -1 ------- null}
+ -t 0.24125 -s 1 -d 2 -p cbr -e 210 -c 0 -i 61 -a 0 -x {1.0 3.0 11 ------- null}
- -t 0.24125 -s 1 -d 2 -p cbr -e 210 -c 0 -i 61 -a 0 -x {1.0 3.0 11 ------- null}
h -t 0.24125 -s 1 -d 2 -p cbr -e 210 -c 0 -i 61 -a 0 -x {1.0 3.0 -1 ------- null}
r -t 0.242535271641791 -s 2 -d 3 -p cbr -e 210 -c 0 -i 56 -a 0 -x {1.0 3.0 6 ------- null}
r -t 0.2437836 -s 1 -d 2 -p cbr -e 210 -c 0 -i 59 -a 0 -x {1.0 3.0 9 ------- null}
+ -t 0.2437836 -s 2 -d 3 -p cbr -e 210 -c 0 -i 59 -a 0 -x {1.0 3.0 9 ------- null}
- -t 0.2437836 -s 2 -d 3 -p cbr -e 210 -c 0 -i 59 -a 0 -x {1.0 3.0 9 ------- null}
h -t 0.2437836 -s 2 -d 3 -p cbr -e 210 -c 0 -i 59 -a 0 -x {1.0 3.0 -1 ------- null}
+ -t 0.245 -s 1 -d 2 -p cbr -e 210 -c 0 -i 62 -a 0 -x {1.0 3.0 12 ------- null}
- -t 0.245 -s 1 -d 2 -p cbr -e 210 -c 0 -i 62 -a 0 -x {1.0 3.0 12 ------- null}
h -t 0.245 -s 1 -d 2 -p cbr -e 210 -c 0 -i 62 -a 0 -x {1.0 3.0 -1 ------- null}
r -t 0.246285271641791 -s 2 -d 3 -p cbr -e 210 -c 0 -i 57 -a 0 -x {1.0 3.0 7 ------- null}
r -t 0.2475336 -s 1 -d 2 -p cbr -e 210 -c 0 -i 60 -a 0 -x {1.0 3.0 10 ------- null}
+ -t 0.2475336 -s 2 -d 3 -p cbr -e 210 -c 0 -i 60 -a 0 -x {1.0 3.0 10 ------- null}
- -t 0.2475336 -s 2 -d 3 -p cbr -e 210 -c 0 -i 60 -a 0 -x {1.0 3.0 10 ------- null}
h -t 0.2475336 -s 2 -d 3 -p cbr -e 210 -c 0 -i 60 -a 0 -x {1.0 3.0 -1 ------- null}
+ -t 0.24875 -s 1 -d 2 -p cbr -e 210 -c 0 -i 63 -a 0 -x {1.0 3.0 13 ------- null}
- -t 0.24875 -s 1 -d 2 -p cbr -e 210 -c 0 -i 63 -a 0 -x {1.0 3.0 13 ------- null}
h -t 0.24875 -s 1 -d 2 -p cbr -e 210 -c 0 -i 63 -a 0 -x {1.0 3.0 -1 ------- null}
r -t 0.250035271641791 -s 2 -d 3 -p cbr -e 210 -c 0 -i 58 -a 0 -x {1.0 3.0 8 ------- null}
r -t 0.2512836 -s 1 -d 2 -p cbr -e 210 -c 0 -i 61 -a 0 -x {1.0 3.0 11 ------- null}
+ -t 0.2512836 -s 2 -d 3 -p cbr -e 210 -c 0 -i 61 -a 0 -x {1.0 3.0 11 ------- null}
- -t 0.2512836 -s 2 -d 3 -p cbr -e 210 -c 0 -i 61 -a 0 -x {1.0 3.0 11 ------- null}
h -t 0.2512836 -s 2 -d 3 -p cbr -e 210 -c 0 -i 61 -a 0 -x {1.0 3.0 -1 ------- null}
+ -t 0.2525 -s 1 -d 2 -p cbr -e 210 -c 0 -i 64 -a 0 -x {1.0 3.0 14 ------- null}
- -t 0.2525 -s 1 -d 2 -p cbr -e 210 -c 0 -i 64 -a 0 -x {1.0 3.0 14 ------- null}
h -t 0.2525 -s 1 -d 2 -p cbr -e 210 -c 0 -i 64 -a 0 -x {1.0 3.0 -1 ------- null}
r -t 0.253785271641791 -s 2 -d 3 -p cbr -e 210 -c 0 -i 59 -a 0 -x {1.0 3.0 9 ------- null}
r -t 0.2550336 -s 1 -d 2 -p cbr -e 210 -c 0 -i 62 -a 0 -x {1.0 3.0 12 ------- null}
+ -t 0.2550336 -s 2 -d 3 -p cbr -e 210 -c 0 -i 62 -a 0 -x {1.0 3.0 12 ------- null}
- -t 0.2550336 -s 2 -d 3 -p cbr -e 210 -c 0 -i 62 -a 0 -x {1.0 3.0 12 ------- null}
h -t 0.2550336 -s 2 -d 3 -p cbr -e 210 -c 0 -i 62 -a 0 -x {1.0 3.0 -1 ------- null}
+ -t 0.25625 -s 1 -d 2 -p cbr -e 210 -c 0 -i 65 -a 0 -x {1.0 3.0 15 ------- null}
- -t 0.25625 -s 1 -d 2 -p cbr -e 210 -c 0 -i 65 -a 0 -x {1.0 3.0 15 ------- null}
h -t 0.25625 -s 1 -d 2 -p cbr -e 210 -c 0 -i 65 -a 0 -x {1.0 3.0 -1 ------- null}
r -t 0.257535271641791 -s 2 -d 3 -p cbr -e 210 -c 0 -i 60 -a 0 -x {1.0 3.0 10 ------- null}
r -t 0.2587836 -s 1 -d 2 -p cbr -e 210 -c 0 -i 63 -a 0 -x {1.0 3.0 13 ------- null}
+ -t 0.2587836 -s 2 -d 3 -p cbr -e 210 -c 0 -i 63 -a 0 -x {1.0 3.0 13 ------- null}
- -t 0.2587836 -s 2 -d 3 -p cbr -e 210 -c 0 -i 63 -a 0 -x {1.0 3.0 13 ------- null}
h -t 0.2587836 -s 2 -d 3 -p cbr -e 210 -c 0 -i 63 -a 0 -x {1.0 3.0 -1 ------- null}
+ -t 0.26 -s 1 -d 2 -p cbr -e 210 -c 0 -i 66 -a 0 -x {1.0 3.0 16 ------- null}
- -t 0.26 -s 1 -d 2 -p cbr -e 210 -c 0 -i 66 -a 0 -x {1.0 3.0 16 ------- null}
h -t 0.26 -s 1 -d 2 -p cbr -e 210 -c 0 -i 66 -a 0 -x {1.0 3.0 -1 ------- null}
r -t 0.261285271641791 -s 2 -d 3 -p cbr -e 210 -c 0 -i 61 -a 0 -x {1.0 3.0 11 ------- null}
r -t 0.2625336 -s 1 -d 2 -p cbr -e 210 -c 0 -i 64 -a 0 -x {1.0 3.0 14 ------- null}
+ -t 0.2625336 -s 2 -d 3 -p cbr -e 210 -c 0 -i 64 -a 0 -x {1.0 3.0 14 ------- null}
- -t 0.2625336 -s 2 -d 3 -p cbr -e 210 -c 0 -i 64 -a 0 -x {1.0 3.0 14 ------- null}
h -t 0.2625336 -s 2 -d 3 -p cbr -e 210 -c 0 -i 64 -a 0 -x {1.0 3.0 -1 ------- null}
+ -t 0.26375 -s 1 -d 2 -p cbr -e 210 -c 0 -i 67 -a 0 -x {1.0 3.0 17 ------- null}
- -t 0.26375 -s 1 -d 2 -p cbr -e 210 -c 0 -i 67 -a 0 -x {1.0 3.0 17 ------- null}
h -t 0.26375 -s 1 -d 2 -p cbr -e 210 -c 0 -i 67 -a 0 -x {1.0 3.0 -1 ------- null}
r -t 0.265035271641791 -s 2 -d 3 -p cbr -e 210 -c 0 -i 62 -a 0 -x {1.0 3.0 12 ------- null}
r -t 0.2662836 -s 1 -d 2 -p cbr -e 210 -c 0 -i 65 -a 0 -x {1.0 3.0 15 ------- null}
+ -t 0.2662836 -s 2 -d 3 -p cbr -e 210 -c 0 -i 65 -a 0 -x {1.0 3.0 15 ------- null}
- -t 0.2662836 -s 2 -d 3 -p cbr -e 210 -c 0 -i 65 -a 0 -x {1.0 3.0 15 ------- null}
h -t 0.2662836 -s 2 -d 3 -p cbr -e 210 -c 0 -i 65 -a 0 -x {1.0 3.0 -1 ------- null}
+ -t 0.2675 -s 1 -d 2 -p cbr -e 210 -c 0 -i 68 -a 0 -x {1.0 3.0 18 ------- null}
- -t 0.2675 -s 1 -d 2 -p cbr -e 210 -c 0 -i 68 -a 0 -x {1.0 3.0 18 ------- null}
h -t 0.2675 -s 1 -d 2 -p cbr -e 210 -c 0 -i 68 -a 0 -x {1.0 3.0 -1 ------- null}
r -t 0.268785271641791 -s 2 -d 3 -p cbr -e 210 -c 0 -i 63 -a 0 -x {1.0 3.0 13 ------- null}
r -t 0.2700336 -s 1 -d 2 -p cbr -e 210 -c 0 -i 66 -a 0 -x {1.0 3.0 16 ------- null}
+ -t 0.2700336 -s 2 -d 3 -p cbr -e 210 -c 0 -i 66 -a 0 -x {1.0 3.0 16 ------- null}
- -t 0.2700336 -s 2 -d 3 -p cbr -e 210 -c 0 -i 66 -a 0 -x {1.0 3.0 16 ------- null}
h -t 0.2700336 -s 2 -d 3 -p cbr -e 210 -c 0 -i 66 -a 0 -x {1.0 3.0 -1 ------- null}
+ -t 0.27125 -s 1 -d 2 -p cbr -e 210 -c 0 -i 69 -a 0 -x {1.0 3.0 19 ------- null}
- -t 0.27125 -s 1 -d 2 -p cbr -e 210 -c 0 -i 69 -a 0 -x {1.0 3.0 19 ------- null}
h -t 0.27125 -s 1 -d 2 -p cbr -e 210 -c 0 -i 69 -a 0 -x {1.0 3.0 -1 ------- null}
r -t 0.272535271641791 -s 2 -d 3 -p cbr -e 210 -c 0 -i 64 -a 0 -x {1.0 3.0 14 ------- null}
r -t 0.2737836 -s 1 -d 2 -p cbr -e 210 -c 0 -i 67 -a 0 -x {1.0 3.0 17 ------- null}
+ -t 0.2737836 -s 2 -d 3 -p cbr -e 210 -c 0 -i 67 -a 0 -x {1.0 3.0 17 ------- null}
- -t 0.2737836 -s 2 -d 3 -p cbr -e 210 -c 0 -i 67 -a 0 -x {1.0 3.0 17 ------- null}
h -t 0.2737836 -s 2 -d 3 -p cbr -e 210 -c 0 -i 67 -a 0 -x {1.0 3.0 -1 ------- null}
+ -t 0.275 -s 1 -d 2 -p cbr -e 210 -c 0 -i 70 -a 0 -x {1.0 3.0 20 ------- null}
- -t 0.275 -s 1 -d 2 -p cbr -e 210 -c 0 -i 70 -a 0 -x {1.0 3.0 20 ------- null}
h -t 0.275 -s 1 -d 2 -p cbr -e 210 -c 0 -i 70 -a 0 -x {1.0 3.0 -1 ------- null}
r -t 0.276285271641791 -s 2 -d 3 -p cbr -e 210 -c 0 -i 65 -a 0 -x {1.0 3.0 15 ------- null}
r -t 0.2775336 -s 1 -d 2 -p cbr -e 210 -c 0 -i 68 -a 0 -x {1.0 3.0 18 ------- null}
+ -t 0.2775336 -s 2 -d 3 -p cbr -e 210 -c 0 -i 68 -a 0 -x {1.0 3.0 18 ------- null}
- -t 0.2775336 -s 2 -d 3 -p cbr -e 210 -c 0 -i 68 -a 0 -x {1.0 3.0 18 ------- null}
h -t 0.2775336 -s 2 -d 3 -p cbr -e 210 -c 0 -i 68 -a 0 -x {1.0 3.0 -1 ------- null}
+ -t 0.27875 -s 1 -d 2 -p cbr -e 210 -c 0 -i 71 -a 0 -x {1.0 3.0 21 ------- null}
- -t 0.27875 -s 1 -d 2 -p cbr -e 210 -c 0 -i 71 -a 0 -x {1.0 3.0 21 ------- null}
h -t 0.27875 -s 1 -d 2 -p cbr -e 210 -c 0 -i 71 -a 0 -x {1.0 3.0 -1 ------- null}
r -t 0.280035271641791 -s 2 -d 3 -p cbr -e 210 -c 0 -i 66 -a 0 -x {1.0 3.0 16 ------- null}
r -t 0.2812836 -s 1 -d 2 -p cbr -e 210 -c 0 -i 69 -a 0 -x {1.0 3.0 19 ------- null}
+ -t 0.2812836 -s 2 -d 3 -p cbr -e 210 -c 0 -i 69 -a 0 -x {1.0 3.0 19 ------- null}
- -t 0.2812836 -s 2 -d 3 -p cbr -e 210 -c 0 -i 69 -a 0 -x {1.0 3.0 19 ------- null}
h -t 0.2812836 -s 2 -d 3 -p cbr -e 210 -c 0 -i 69 -a 0 -x {1.0 3.0 -1 ------- null}
+ -t 0.2825 -s 1 -d 2 -p cbr -e 210 -c 0 -i 72 -a 0 -x {1.0 3.0 22 ------- null}
- -t 0.2825 -s 1 -d 2 -p cbr -e 210 -c 0 -i 72 -a 0 -x {1.0 3.0 22 ------- null}
h -t 0.2825 -s 1 -d 2 -p cbr -e 210 -c 0 -i 72 -a 0 -x {1.0 3.0 -1 ------- null}
r -t 0.283785271641791 -s 2 -d 3 -p cbr -e 210 -c 0 -i 67 -a 0 -x {1.0 3.0 17 ------- null}
r -t 0.2850336 -s 1 -d 2 -p cbr -e 210 -c 0 -i 70 -a 0 -x {1.0 3.0 20 ------- null}
+ -t 0.2850336 -s 2 -d 3 -p cbr -e 210 -c 0 -i 70 -a 0 -x {1.0 3.0 20 ------- null}
- -t 0.2850336 -s 2 -d 3 -p cbr -e 210 -c 0 -i 70 -a 0 -x {1.0 3.0 20 ------- null}
h -t 0.2850336 -s 2 -d 3 -p cbr -e 210 -c 0 -i 70 -a 0 -x {1.0 3.0 -1 ------- null}
+ -t 0.28625 -s 1 -d 2 -p cbr -e 210 -c 0 -i 73 -a 0 -x {1.0 3.0 23 ------- null}
- -t 0.28625 -s 1 -d 2 -p cbr -e 210 -c 0 -i 73 -a 0 -x {1.0 3.0 23 ------- null}
h -t 0.28625 -s 1 -d 2 -p cbr -e 210 -c 0 -i 73 -a 0 -x {1.0 3.0 -1 ------- null}
r -t 0.287535271641791 -s 2 -d 3 -p cbr -e 210 -c 0 -i 68 -a 0 -x {1.0 3.0 18 ------- null}
r -t 0.2887836 -s 1 -d 2 -p cbr -e 210 -c 0 -i 71 -a 0 -x {1.0 3.0 21 ------- null}
+ -t 0.2887836 -s 2 -d 3 -p cbr -e 210 -c 0 -i 71 -a 0 -x {1.0 3.0 21 ------- null}
- -t 0.2887836 -s 2 -d 3 -p cbr -e 210 -c 0 -i 71 -a 0 -x {1.0 3.0 21 ------- null}
h -t 0.2887836 -s 2 -d 3 -p cbr -e 210 -c 0 -i 71 -a 0 -x {1.0 3.0 -1 ------- null}
+ -t 0.29 -s 1 -d 2 -p cbr -e 210 -c 0 -i 74 -a 0 -x {1.0 3.0 24 ------- null}
- -t 0.29 -s 1 -d 2 -p cbr -e 210 -c 0 -i 74 -a 0 -x {1.0 3.0 24 ------- null}
h -t 0.29 -s 1 -d 2 -p cbr -e 210 -c 0 -i 74 -a 0 -x {1.0 3.0 -1 ------- null}
r -t 0.291285271641791 -s 2 -d 3 -p cbr -e 210 -c 0 -i 69 -a 0 -x {1.0 3.0 19 ------- null}
r -t 0.2925336 -s 1 -d 2 -p cbr -e 210 -c 0 -i 72 -a 0 -x {1.0 3.0 22 ------- null}
+ -t 0.2925336 -s 2 -d 3 -p cbr -e 210 -c 0 -i 72 -a 0 -x {1.0 3.0 22 ------- null}
- -t 0.2925336 -s 2 -d 3 -p cbr -e 210 -c 0 -i 72 -a 0 -x {1.0 3.0 22 ------- null}
h -t 0.2925336 -s 2 -d 3 -p cbr -e 210 -c 0 -i 72 -a 0 -x {1.0 3.0 -1 ------- null}
+ -t 0.29375 -s 1 -d 2 -p cbr -e 210 -c 0 -i 75 -a 0 -x {1.0 3.0 25 ------- null}
- -t 0.29375 -s 1 -d 2 -p cbr -e 210 -c 0 -i 75 -a 0 -x {1.0 3.0 25 ------- null}
h -t 0.29375 -s 1 -d 2 -p cbr -e 210 -c 0 -i 75 -a 0 -x {1.0 3.0 -1 ------- null}
r -t 0.295035271641791 -s 2 -d 3 -p cbr -e 210 -c 0 -i 70 -a 0 -x {1.0 3.0 20 ------- null}
r -t 0.2962836 -s 1 -d 2 -p cbr -e 210 -c 0 -i 73 -a 0 -x {1.0 3.0 23 ------- null}
+ -t 0.2962836 -s 2 -d 3 -p cbr -e 210 -c 0 -i 73 -a 0 -x {1.0 3.0 23 ------- null}
- -t 0.2962836 -s 2 -d 3 -p cbr -e 210 -c 0 -i 73 -a 0 -x {1.0 3.0 23 ------- null}
h -t 0.2962836 -s 2 -d 3 -p cbr -e 210 -c 0 -i 73 -a 0 -x {1.0 3.0 -1 ------- null}
+ -t 0.2975 -s 1 -d 2 -p cbr -e 210 -c 0 -i 76 -a 0 -x {1.0 3.0 26 ------- null}
- -t 0.2975 -s 1 -d 2 -p cbr -e 210 -c 0 -i 76 -a 0 -x {1.0 3.0 26 ------- null}
h -t 0.2975 -s 1 -d 2 -p cbr -e 210 -c 0 -i 76 -a 0 -x {1.0 3.0 -1 ------- null}
r -t 0.298785271641791 -s 2 -d 3 -p cbr -e 210 -c 0 -i 71 -a 0 -x {1.0 3.0 21 ------- null}
r -t 0.3000336 -s 1 -d 2 -p cbr -e 210 -c 0 -i 74 -a 0 -x {1.0 3.0 24 ------- null}