+ 0.1 0 2 cbr 1000 ------- 0 0.0 3.0 0 0
- 0.1 0 2 cbr 1000 ------- 0 0.0 3.0 0 0
+ 0.1 0 2 cbr 1000 ------- 0 0.0 3.0 1 1
+ 0.1 0 2 cbr 1000 ------- 0 0.0 3.0 2 2
+ 0.1 0 2 cbr 1000 ------- 0 0.0 3.0 3 3
+ 0.1 0 2 cbr 1000 ------- 0 0.0 3.0 4 4
+ 0.1 0 2 cbr 1000 ------- 0 0.0 3.0 5 5
+ 0.1 0 2 cbr 1000 ------- 0 0.0 3.0 6 6
+ 0.1 0 2 cbr 1000 ------- 0 0.0 3.0 7 7
+ 0.1 0 2 cbr 1000 ------- 0 0.0 3.0 8 8
+ 0.1 0 2 cbr 1000 ------- 0 0.0 3.0 9 9
+ 0.1 0 2 cbr 1000 ------- 0 0.0 3.0 10 10
d 0.1 0 2 cbr 1000 ------- 0 0.0 3.0 10 10
+ 0.1 0 2 cbr 1000 ------- 0 0.0 3.0 11 11
d 0.1 0 2 cbr 1000 ------- 0 0.0 3.0 11 11
+ 0.1 0 2 cbr 1000 ------- 0 0.0 3.0 12 12
d 0.1 0 2 cbr 1000 ------- 0 0.0 3.0 12 12
+ 0.1 0 2 cbr 1000 ------- 0 0.0 3.0 13 13
d 0.1 0 2 cbr 1000 ------- 0 0.0 3.0 13 13
+ 0.1 0 2 cbr 1000 ------- 0 0.0 3.0 14 14
d 0.1 0 2 cbr 1000 ------- 0 0.0 3.0 14 14
+ 0.1 0 2 cbr 1000 ------- 0 0.0 3.0 15 15
d 0.1 0 2 cbr 1000 ------- 0 0.0 3.0 15 15
+ 0.1 0 2 cbr 1000 ------- 0 0.0 3.0 16 16
d 0.1 0 2 cbr 1000 ------- 0 0.0 3.0 16 16
+ 0.1 0 2 cbr 1000 ------- 0 0.0 3.0 17 17
d 0.1 0 2 cbr 1000 ------- 0 0.0 3.0 17 17
+ 0.1 0 2 cbr 1000 ------- 0 0.0 3.0 18 18
d 0.1 0 2 cbr 1000 ------- 0 0.0 3.0 18 18
+ 0.1 0 2 cbr 1000 ------- 0 0.0 3.0 19 19
d 0.1 0 2 cbr 1000 ------- 0 0.0 3.0 19 19
+ 0.1 0 2 cbr 1000 ------- 0 0.0 3.0 20 20
d 0.1 0 2 cbr 1000 ------- 0 0.0 3.0 20 20
+ 0.1 0 2 cbr 1000 ------- 0 0.0 3.0 21 21
d 0.1 0 2 cbr 1000 ------- 0 0.0 3.0 21 21
+ 0.1 0 2 cbr 1000 ------- 0 0.0 3.0 22 22
d 0.1 0 2 cbr 1000 ------- 0 0.0 3.0 22 22
+ 0.1 0 2 cbr 1000 ------- 0 0.0 3.0 23 23
d 0.1 0 2 cbr 1000 ------- 0 0.0 3.0 23 23
+ 0.1 0 2 cbr 1000 ------- 0 0.0 3.0 24 24
d 0.1 0 2 cbr 1000 ------- 0 0.0 3.0 24 24
+ 0.1 0 2 cbr 1000 ------- 0 0.0 3.0 25 25
d 0.1 0 2 cbr 1000 ------- 0 0.0 3.0 25 25
+ 0.1 0 2 cbr 1000 ------- 0 0.0 3.0 26 26
d 0.1 0 2 cbr 1000 ------- 0 0.0 3.0 26 26
+ 0.1 0 2 cbr 1000 ------- 0 0.0 3.0 27 27
d 0.1 0 2 cbr 1000 ------- 0 0.0 3.0 27 27
+ 0.1 0 2 cbr 1000 ------- 0 0.0 3.0 28 28
d 0.1 0 2 cbr 1000 ------- 0 0.0 3.0 28 28
+ 0.1 0 2 cbr 1000 ------- 0 0.0 3.0 29 29
d 0.1 0 2 cbr 1000 ------- 0 0.0 3.0 29 29
+ 0.1 0 2 cbr 1000 ------- 0 0.0 3.0 30 30
d 0.1 0 2 cbr 1000 ------- 0 0.0 3.0 30 30
+ 0.1 0 2 cbr 1000 ------- 0 0.0 3.0 31 31
d 0.1 0 2 cbr 1000 ------- 0 0.0 3.0 31 31
+ 0.1 0 2 cbr 1000 ------- 0 0.0 3.0 32 32
d 0.1 0 2 cbr 1000 ------- 0 0.0 3.0 32 32
+ 0.1 0 2 cbr 1000 ------- 0 0.0 3.0 33 33
d 0.1 0 2 cbr 1000 ------- 0 0.0 3.0 33 33
+ 0.1 0 2 cbr 1000 ------- 0 0.0 3.0 34 34
d 0.1 0 2 cbr 1000 ------- 0 0.0 3.0 34 34
+ 0.1 0 2 cbr 1000 ------- 0 0.0 3.0 35 35
d 0.1 0 2 cbr 1000 ------- 0 0.0 3.0 35 35
+ 0.1 0 2 cbr 1000 ------- 0 0.0 3.0 36 36
d 0.1 0 2 cbr 1000 ------- 0 0.0 3.0 36 36
+ 0.1 0 2 cbr 1000 ------- 0 0.0 3.0 37 37
d 0.1 0 2 cbr 1000 ------- 0 0.0 3.0 37 37
+ 0.1 0 2 cbr 1000 ------- 0 0.0 3.0 38 38
d 0.1 0 2 cbr 1000 ------- 0 0.0 3.0 38 38
+ 0.1 0 2 cbr 1000 ------- 0 0.0 3.0 39 39
d 0.1 0 2 cbr 1000 ------- 0 0.0 3.0 39 39
+ 0.1 0 2 cbr 1000 ------- 0 0.0 3.0 40 40
d 0.1 0 2 cbr 1000 ------- 0 0.0 3.0 40 40
+ 0.1 0 2 cbr 1000 ------- 0 0.0 3.0 41 41
d 0.1 0 2 cbr 1000 ------- 0 0.0 3.0 41 41
+ 0.1 0 2 cbr 1000 ------- 0 0.0 3.0 42 42
d 0.1 0 2 cbr 1000 ------- 0 0.0 3.0 42 42
+ 0.1 0 2 cbr 1000 ------- 0 0.0 3.0 43 43
d 0.1 0 2 cbr 1000 ------- 0 0.0 3.0 43 43
+ 0.1 0 2 cbr 1000 ------- 0 0.0 3.0 44 44
d 0.1 0 2 cbr 1000 ------- 0 0.0 3.0 44 44
+ 0.1 0 2 cbr 1000 ------- 0 0.0 3.0 45 45
d 0.1 0 2 cbr 1000 ------- 0 0.0 3.0 45 45
+ 0.1 0 2 cbr 1000 ------- 0 0.0 3.0 46 46
d 0.1 0 2 cbr 1000 ------- 0 0.0 3.0 46 46
+ 0.1 0 2 cbr 1000 ------- 0 0.0 3.0 47 47
d 0.1 0 2 cbr 1000 ------- 0 0.0 3.0 47 47
+ 0.1 0 2 cbr 1000 ------- 0 0.0 3.0 48 48
d 0.1 0 2 cbr 1000 ------- 0 0.0 3.0 48 48
+ 0.1 0 2 cbr 1000 ------- 0 0.0 3.0 49 49
d 0.1 0 2 cbr 1000 ------- 0 0.0 3.0 49 49
- 0.10008 0 2 cbr 1000 ------- 0 0.0 3.0 1 1
- 0.10016 0 2 cbr 1000 ------- 0 0.0 3.0 2 2
- 0.10024 0 2 cbr 1000 ------- 0 0.0 3.0 3 3
- 0.10032 0 2 cbr 1000 ------- 0 0.0 3.0 4 4
- 0.1004 0 2 cbr 1000 ------- 0 0.0 3.0 5 5
- 0.10048 0 2 cbr 1000 ------- 0 0.0 3.0 6 6
- 0.10056 0 2 cbr 1000 ------- 0 0.0 3.0 7 7
- 0.10064 0 2 cbr 1000 ------- 0 0.0 3.0 8 8
- 0.10072 0 2 cbr 1000 ------- 0 0.0 3.0 9 9
r 0.11008 0 2 cbr 1000 ------- 0 0.0 3.0 0 0
+ 0.11008 2 3 cbr 1000 ------- 0 0.0 3.0 0 0
- 0.11008 2 3 cbr 1000 ------- 0 0.0 3.0 0 0
r 0.11016 0 2 cbr 1000 ------- 0 0.0 3.0 1 1
+ 0.11016 2 3 cbr 1000 ------- 0 0.0 3.0 1 1
- 0.11016 2 3 cbr 1000 ------- 0 0.0 3.0 1 1
r 0.11024 0 2 cbr 1000 ------- 0 0.0 3.0 2 2
+ 0.11024 2 3 cbr 1000 ------- 0 0.0 3.0 2 2
- 0.11024 2 3 cbr 1000 ------- 0 0.0 3.0 2 2
r 0.11032 0 2 cbr 1000 ------- 0 0.0 3.0 3 3
+ 0.11032 2 3 cbr 1000 ------- 0 0.0 3.0 3 3
- 0.11032 2 3 cbr 1000 ------- 0 0.0 3.0 3 3
r 0.1104 0 2 cbr 1000 ------- 0 0.0 3.0 4 4
+ 0.1104 2 3 cbr 1000 ------- 0 0.0 3.0 4 4
- 0.1104 2 3 cbr 1000 ------- 0 0.0 3.0 4 4
r 0.11048 0 2 cbr 1000 ------- 0 0.0 3.0 5 5
+ 0.11048 2 3 cbr 1000 ------- 0 0.0 3.0 5 5
- 0.11048 2 3 cbr 1000 ------- 0 0.0 3.0 5 5
r 0.11056 0 2 cbr 1000 ------- 0 0.0 3.0 6 6
+ 0.11056 2 3 cbr 1000 ------- 0 0.0 3.0 6 6
- 0.11056 2 3 cbr 1000 ------- 0 0.0 3.0 6 6
r 0.11064 0 2 cbr 1000 ------- 0 0.0 3.0 7 7
+ 0.11064 2 3 cbr 1000 ------- 0 0.0 3.0 7 7
- 0.11064 2 3 cbr 1000 ------- 0 0.0 3.0 7 7
r 0.11072 0 2 cbr 1000 ------- 0 0.0 3.0 8 8
+ 0.11072 2 3 cbr 1000 ------- 0 0.0 3.0 8 8
- 0.11072 2 3 cbr 1000 ------- 0 0.0 3.0 8 8
r 0.1108 0 2 cbr 1000 ------- 0 0.0 3.0 9 9
+ 0.1108 2 3 cbr 1000 ------- 0 0.0 3.0 9 9
- 0.1108 2 3 cbr 1000 ------- 0 0.0 3.0 9 9
r 0.120088 2 3 cbr 1000 ------- 0 0.0 3.0 0 0
r 0.120168 2 3 cbr 1000 ------- 0 0.0 3.0 1 1
r 0.120248 2 3 cbr 1000 ------- 0 0.0 3.0 2 2
r 0.120328 2 3 cbr 1000 ------- 0 0.0 3.0 3 3
r 0.120408 2 3 cbr 1000 ------- 0 0.0 3.0 4 4
r 0.120488 2 3 cbr 1000 ------- 0 0.0 3.0 5 5
r 0.120568 2 3 cbr 1000 ------- 0 0.0 3.0 6 6
r 0.120648 2 3 cbr 1000 ------- 0 0.0 3.0 7 7
r 0.120728 2 3 cbr 1000 ------- 0 0.0 3.0 8 8
r 0.120808 2 3 cbr 1000 ------- 0 0.0 3.0 9 9
+ 0.2 1 2 cbr 210 ------- 0 1.0 3.0 0 50
- 0.2 1 2 cbr 210 ------- 0 1.0 3.0 0 50
+ 0.20375 1 2 cbr 210 ------- 0 1.0 3.0 1 51
- 0.20375 1 2 cbr 210 ------- 0 1.0 3.0 1 51
+ 0.2075 1 2 cbr 210 ------- 0 1.0 3.0 2 52
- 0.2075 1 2 cbr 210 ------- 0 1.0 3.0 2 52
r 0.210034 1 2 cbr 210 ------- 0 1.0 3.0 0 50
+ 0.210034 2 3 cbr 210 ------- 0 1.0 3.0 0 50
- 0.210034 2 3 cbr 210 ------- 0 1.0 3.0 0 50
+ 0.21125 1 2 cbr 210 ------- 0 1.0 3.0 3 53
- 0.21125 1 2 cbr 210 ------- 0 1.0 3.0 3 53
r 0.213784 1 2 cbr 210 ------- 0 1.0 3.0 1 51
+ 0.213784 2 3 cbr 210 ------- 0 1.0 3.0 1 51
- 0.213784 2 3 cbr 210 ------- 0 1.0 3.0 1 51
+ 0.215 1 2 cbr 210 ------- 0 1.0 3.0 4 54
- 0.215 1 2 cbr 210 ------- 0 1.0 3.0 4 54
r 0.217534 1 2 cbr 210 ------- 0 1.0 3.0 2 52
+ 0.217534 2 3 cbr 210 ------- 0 1.0 3.0 2 52
- 0.217534 2 3 cbr 210 ------- 0 1.0 3.0 2 52
+ 0.21875 1 2 cbr 210 ------- 0 1.0 3.0 5 55
- 0.21875 1 2 cbr 210 ------- 0 1.0 3.0 5 55
r 0.220035 2 3 cbr 210 ------- 0 1.0 3.0 0 50
r 0.221284 1 2 cbr 210 ------- 0 1.0 3.0 3 53
+ 0.221284 2 3 cbr 210 ------- 0 1.0 3.0 3 53
- 0.221284 2 3 cbr 210 ------- 0 1.0 3.0 3 53
+ 0.2225 1 2 cbr 210 ------- 0 1.0 3.0 6 56
- 0.2225 1 2 cbr 210 ------- 0 1.0 3.0 6 56
r 0.223785 2 3 cbr 210 ------- 0 1.0 3.0 1 51
r 0.225034 1 2 cbr 210 ------- 0 1.0 3.0 4 54
+ 0.225034 2 3 cbr 210 ------- 0 1.0 3.0 4 54
- 0.225034 2 3 cbr 210 ------- 0 1.0 3.0 4 54
+ 0.22625 1 2 cbr 210 ------- 0 1.0 3.0 7 57
- 0.22625 1 2 cbr 210 ------- 0 1.0 3.0 7 57
r 0.227535 2 3 cbr 210 ------- 0 1.0 3.0 2 52
r 0.228784 1 2 cbr 210 ------- 0 1.0 3.0 5 55
+ 0.228784 2 3 cbr 210 ------- 0 1.0 3.0 5 55
- 0.228784 2 3 cbr 210 ------- 0 1.0 3.0 5 55
+ 0.23 1 2 cbr 210 ------- 0 1.0 3.0 8 58
- 0.23 1 2 cbr 210 ------- 0 1.0 3.0 8 58
r 0.231285 2 3 cbr 210 ------- 0 1.0 3.0 3 53
r 0.232534 1 2 cbr 210 ------- 0 1.0 3.0 6 56
+ 0.232534 2 3 cbr 210 ------- 0 1.0 3.0 6 56
- 0.232534 2 3 cbr 210 ------- 0 1.0 3.0 6 56
+ 0.23375 1 2 cbr 210 ------- 0 1.0 3.0 9 59
- 0.23375 1 2 cbr 210 ------- 0 1.0 3.0 9 59
r 0.235035 2 3 cbr 210 ------- 0 1.0 3.0 4 54
r 0.236284 1 2 cbr 210 ------- 0 1.0 3.0 7 57
+ 0.236284 2 3 cbr 210 ------- 0 1.0 3.0 7 57
- 0.236284 2 3 cbr 210 ------- 0 1.0 3.0 7 57
+ 0.2375 1 2 cbr 210 ------- 0 1.0 3.0 10 60
- 0.2375 1 2 cbr 210 ------- 0 1.0 3.0 10 60
r 0.238785 2 3 cbr 210 ------- 0 1.0 3.0 5 55
r 0.240034 1 2 cbr 210 ------- 0 1.0 3.0 8 58
+ 0.240034 2 3 cbr 210 ------- 0 1.0 3.0 8 58
- 0.240034 2 3 cbr 210 ------- 0 1.0 3.0 8 58
+ 0.24125 1 2 cbr 210 ------- 0 1.0 3.0 11 61
- 0.24125 1 2 cbr 210 ------- 0 1.0 3.0 11 61
r 0.242535 2 3 cbr 210 ------- 0 1.0 3.0 6 56
r 0.243784 1 2 cbr 210 ------- 0 1.0 3.0 9 59
+ 0.243784 2 3 cbr 210 ------- 0 1.0 3.0 9 59
- 0.243784 2 3 cbr 210 ------- 0 1.0 3.0 9 59
+ 0.245 1 2 cbr 210 ------- 0 1.0 3.0 12 62
- 0.245 1 2 cbr 210 ------- 0 1.0 3.0 12 62
r 0.246285 2 3 cbr 210 ------- 0 1.0 3.0 7 57
r 0.247534 1 2 cbr 210 ------- 0 1.0 3.0 10 60
+ 0.247534 2 3 cbr 210 ------- 0 1.0 3.0 10 60
- 0.247534 2 3 cbr 210 ------- 0 1.0 3.0 10 60
+ 0.24875 1 2 cbr 210 ------- 0 1.0 3.0 13 63
- 0.24875 1 2 cbr 210 ------- 0 1.0 3.0 13 63
r 0.250035 2 3 cbr 210 ------- 0 1.0 3.0 8 58
r 0.251284 1 2 cbr 210 ------- 0 1.0 3.0 11 61
+ 0.251284 2 3 cbr 210 ------- 0 1.0 3.0 11 61
- 0.251284 2 3 cbr 210 ------- 0 1.0 3.0 11 61
+ 0.2525 1 2 cbr 210 ------- 0 1.0 3.0 14 64
- 0.2525 1 2 cbr 210 ------- 0 1.0 3.0 14 64
r 0.253785 2 3 cbr 210 ------- 0 1.0 3.0 9 59
r 0.255034 1 2 cbr 210 ------- 0 1.0 3.0 12 62
+ 0.255034 2 3 cbr 210 ------- 0 1.0 3.0 12 62
- 0.255034 2 3 cbr 210 ------- 0 1.0 3.0 12 62
+ 0.25625 1 2 cbr 210 ------- 0 1.0 3.0 15 65
- 0.25625 1 2 cbr 210 ------- 0 1.0 3.0 15 65
r 0.257535 2 3 cbr 210 ------- 0 1.0 3.0 10 60
r 0.258784 1 2 cbr 210 ------- 0 1.0 3.0 13 63
+ 0.258784 2 3 cbr 210 ------- 0 1.0 3.0 13 63
- 0.258784 2 3 cbr 210 ------- 0 1.0 3.0 13 63
+ 0.26 1 2 cbr 210 ------- 0 1.0 3.0 16 66
- 0.26 1 2 cbr 210 ------- 0 1.0 3.0 16 66
r 0.261285 2 3 cbr 210 ------- 0 1.0 3.0 11 61
r 0.262534 1 2 cbr 210 ------- 0 1.0 3.0 14 64
+ 0.262534 2 3 cbr 210 ------- 0 1.0 3.0 14 64
- 0.262534 2 3 cbr 210 ------- 0 1.0 3.0 14 64
+ 0.26375 1 2 cbr 210 ------- 0 1.0 3.0 17 67
- 0.26375 1 2 cbr 210 ------- 0 1.0 3.0 17 67
r 0.265035 2 3 cbr 210 ------- 0 1.0 3.0 12 62
r 0.266284 1 2 cbr 210 ------- 0 1.0 3.0 15 65
+ 0.266284 2 3 cbr 210 ------- 0 1.0 3.0 15 65
- 0.266284 2 3 cbr 210 ------- 0 1.0 3.0 15 65
+ 0.2675 1 2 cbr 210 ------- 0 1.0 3.0 18 68
- 0.2675 1 2 cbr 210 ------- 0 1.0 3.0 18 68
r 0.268785 2 3 cbr 210 ------- 0 1.0 3.0 13 63
r 0.270034 1 2 cbr 210 ------- 0 1.0 3.0 16 66
+ 0.270034 2 3 cbr 210 ------- 0 1.0 3.0 16 66
- 0.270034 2 3 cbr 210 ------- 0 1.0 3.0 16 66
+ 0.27125 1 2 cbr 210 ------- 0 1.0 3.0 19 69
- 0.27125 1 2 cbr 210 ------- 0 1.0 3.0 19 69
r 0.272535 2 3 cbr 210 ------- 0 1.0 3.0 14 64
r 0.273784 1 2 cbr 210 ------- 0 1.0 3.0 17 67
+ 0.273784 2 3 cbr 210 ------- 0 1.0 3.0 17 67
- 0.273784 2 3 cbr 210 ------- 0 1.0 3.0 17 67
+ 0.275 1 2 cbr 210 ------- 0 1.0 3.0 20 70
- 0.275 1 2 cbr 210 ------- 0 1.0 3.0 20 70
r 0.276285 2 3 cbr 210 ------- 0 1.0 3.0 15 65
r 0.277534 1 2 cbr 210 ------- 0 1.0 3.0 18 68
+ 0.277534 2 3 cbr 210 ------- 0 1.0 3.0 18 68
- 0.277534 2 3 cbr 210 ------- 0 1.0 3.0 18 68
+ 0.27875 1 2 cbr 210 ------- 0 1.0 3.0 21 71
- 0.27875 1 2 cbr 210 ------- 0 1.0 3.0 21 71
r 0.280035 2 3 cbr 210 ------- 0 1.0 3.0 16 66
r 0.281284 1 2 cbr 210 ------- 0 1.0 3.0 19 69
+ 0.281284 2 3 cbr 210 ------- 0 1.0 3.0 19 69
- 0.281284 2 3 cbr 210 ------- 0 1.0 3.0 19 69
+ 0.2825 1 2 cbr 210 ------- 0 1.0 3.0 22 72
- 0.2825 1 2 cbr 210 ------- 0 1.0 3.0 22 72
r 0.283785 2 3 cbr 210 ------- 0 1.0 3.0 17 67
r 0.285034 1 2 cbr 210 ------- 0 1.0 3.0 20 70
+ 0.285034 2 3 cbr 210 ------- 0 1.0 3.0 20 70
- 0.285034 2 3 cbr 210 ------- 0 1.0 3.0 20 70
+ 0.28625 1 2 cbr 210 ------- 0 1.0 3.0 23 73
- 0.28625 1 2 cbr 210 ------- 0 1.0 3.0 23 73
r 0.287535 2 3 cbr 210 ------- 0 1.0 3.0 18 68
r 0.288784 1 2 cbr 210 ------- 0 1.0 3.0 21 71
+ 0.288784 2 3 cbr 210 ------- 0 1.0 3.0 21 71
- 0.288784 2 3 cbr 210 ------- 0 1.0 3.0 21 71
+ 0.29 1 2 cbr 210 ------- 0 1.0 3.0 24 74
- 0.29 1 2 cbr 210 ------- 0 1.0 3.0 24 74
r 0.291285 2 3 cbr 210 ------- 0 1.0 3.0 19 69
r 0.292534 1 2 cbr 210 ------- 0 1.0 3.0 22 72
+ 0.292534 2 3 cbr 210 ------- 0 1.0 3.0 22 72
- 0.292534 2 3 cbr 210 ------- 0 1.0 3.0 22 72
+ 0.29375 1 2 cbr 210 ------- 0 1.0 3.0 25 75
- 0.29375 1 2 cbr 210 ------- 0 1.0 3.0 25 75
r 0.295035 2 3 cbr 210 ------- 0 1.0 3.0 20 70
r 0.296284 1 2 cbr 210 ------- 0 1.0 3.0 23 73
+ 0.296284 2 3 cbr 210 ------- 0 1.0 3.0 23 73
- 0.296284 2 3 cbr 210 ------- 0 1.0 3.0 23 73
+ 0.2975 1 2 cbr 210 ------- 0 1.0 3.0 26 76
- 0.2975 1 2 cbr 210 ------- 0 1.0 3.0 26 76
r 0.298785 2 3 cbr 210 ------- 0 1.0 3.0 21 71
r 0.300034 1 2 cbr 210 ------- 0 1.0 3.0 24 74
+ 0.300034 2 3 cbr 210 ------- 0 1.0 3.0 24 74
- 0.300034 2 3 cbr 210 ------- 0 1.0 3.0 24 74
+ 0.30125 1 2 cbr 210 ------- 0 1.0 3.0 27 77
- 0.30125 1 2 cbr 210 ------- 0 1.0 3.0 27 77
r 0.302535 2 3 cbr 210 ------- 0 1.0 3.0 22 72
r 0.303784 1 2 cbr 210 ------- 0 1.0 3.0 25 75
+ 0.303784 2 3 cbr 210 ------- 0 1.0 3.0 25 75
- 0.303784 2 3 cbr 210 ------- 0 1.0 3.0 25 75
+ 0.305 1 2 cbr 210 ------- 0 1.0 3.0 28 78
- 0.305 1 2 cbr 210 ------- 0 1.0 3.0 28 78
r 0.306285 2 3 cbr 210 ------- 0 1.0 3.0 23 73
r 0.307534 1 2 cbr 210 ------- 0 1.0 3.0 26 76
+ 0.307534 2 3 cbr 210 ------- 0 1.0 3.0 26 76
- 0.307534 2 3 cbr 210 ------- 0 1.0 3.0 26 76
+ 0.30875 1 2 cbr 210 ------- 0 1.0 3.0 29 79
- 0.30875 1 2 cbr 210 ------- 0 1.0 3.0 29 79
r 0.310035 2 3 cbr 210 ------- 0 1.0 3.0 24 74
r 0.311284 1 2 cbr 210 ------- 0 1.0 3.0 27 77
+ 0.311284 2 3 cbr 210 ------- 0 1.0 3.0 27 77
- 0.311284 2 3 cbr 210 ------- 0 1.0 3.0 27 77
+ 0.3125 1 2 cbr 210 ------- 0 1.0 3.0 30 80
- 0.3125 1 2 cbr 210 ------- 0 1.0 3.0 30 80
r 0.313785 2 3 cbr 210 ------- 0 1.0 3.0 25 75
r 0.315034 1 2 cbr 210 ------- 0 1.0 3.0 28 78
+ 0.315034 2 3 cbr 210 ------- 0 1.0 3.0 28 78
- 0.315034 2 3 cbr 210 ------- 0 1.0 3.0 28 78
+ 0.31625 1 2 cbr 210 ------- 0 1.0 3.0 31 81
- 0.31625 1 2 cbr 210 ------- 0 1.0 3.0 31 81
r 0.317535 2 3 cbr 210 ------- 0 1.0 3.0 26 76
r 0.318784 1 2 cbr 210 ------- 0 1.0 3.0 29 79
+ 0.318784 2 3 cbr 210 ------- 0 1.0 3.0 29 79
- 0.318784 2 3 cbr 210 ------- 0 1.0 3.0 29 79
+ 0.32 1 2 cbr 210 ------- 0 1.0 3.0 32 82
- 0.32 1 2 cbr 210 ------- 0 1.0 3.0 32 82
r 0.321285 2 3 cbr 210 ------- 0 1.0 3.0 27 77
r 0.322534 1 2 cbr 210 ------- 0 1.0 3.0 30 80
+ 0.322534 2 3 cbr 210 ------- 0 1.0 3.0 30 80
- 0.322534 2 3 cbr 210 ------- 0 1.0 3.0 30 80
+ 0.32375 1 2 cbr 210 ------- 0 1.0 3.0 33 83
- 0.32375 1 2 cbr 210 ------- 0 1.0 3.0 33 83
r 0.325035 2 3 cbr 210 ------- 0 1.0 3.0 28 78
r 0.326284 1 2 cbr 210 ------- 0 1.0 3.0 31 81
+ 0.326284 2 3 cbr 210 ------- 0 1.0 3.0 31 81
- 0.326284 2 3 cbr 210 ------- 0 1.0 3.0 31 81
+ 0.3275 1 2 cbr 210 ------- 0 1.0 3.0 34 84
- 0.3275 1 2 cbr 210 ------- 0 1.0 3.0 34 84
r 0.328785 2 3 cbr 210 ------- 0 1.0 3.0 29 79
r 0.330034 1 2 cbr 210 ------- 0 1.0 3.0 32 82
+ 0.330034 2 3 cbr 210 ------- 0 1.0 3.0 32 82
- 0.330034 2 3 cbr 210 ------- 0 1.0 3.0 32 82
+ 0.33125 1 2 cbr 210 ------- 0 1.0 3.0 35 85
- 0.33125 1 2 cbr 210 ------- 0 1.0 3.0 35 85
r 0.332535 2 3 cbr 210 ------- 0 1.0 3.0 30 80
r 0.333784 1 2 cbr 210 ------- 0 1.0 3.0 33 83
+ 0.333784 2 3 cbr 210 ------- 0 1.0 3.0 33 83
- 0.333784 2 3 cbr 210 ------- 0 1.0 3.0 33 83
+ 0.335 1 2 cbr 210 ------- 0 1.0 3.0 36 86
- 0.335 1 2 cbr 210 ------- 0 1.0 3.0 36 86
r 0.336285 2 3 cbr 210 ------- 0 1.0 3.0 31 81
r 0.337534 1 2 cbr 210 ------- 0 1.0 3.0 34 84
+ 0.337534 2 3 cbr 210 ------- 0 1.0 3.0 34 84
- 0.337534 2 3 cbr 210 ------- 0 1.0 3.0 34 84
+ 0.33875 1 2 cbr 210 ------- 0 1.0 3.0 37 87
- 0.33875 1 2 cbr 210 ------- 0 1.0 3.0 37 87
r 0.340035 2 3 cbr 210 ------- 0 1.0 3.0 32 82
r 0.341284 1 2 cbr 210 ------- 0 1.0 3.0 35 85
+ 0.341284 2 3 cbr 210 ------- 0 1.0 3.0 35 85
- 0.341284 2 3 cbr 210 ------- 0 1.0 3.0 35 85
+ 0.3425 1 2 cbr 210 ------- 0 1.0 3.0 38 88
- 0.3425 1 2 cbr 210 ------- 0 1.0 3.0 38 88
r 0.343785 2 3 cbr 210 ------- 0 1.0 3.0 33 83
r 0.345034 1 2 cbr 210 ------- 0 1.0 3.0 36 86
+ 0.345034 2 3 cbr 210 ------- 0 1.0 3.0 36 86
- 0.345034 2 3 cbr 210 ------- 0 1.0 3.0 36 86
+ 0.34625 1 2 cbr 210 ------- 0 1.0 3.0 39 89
- 0.34625 1 2 cbr 210 ------- 0 1.0 3.0 39 89
r 0.347535 2 3 cbr 210 ------- 0 1.0 3.0 34 84
r 0.348784 1 2 cbr 210 ------- 0 1.0 3.0 37 87
+ 0.348784 2 3 cbr 210 ------- 0 1.0 3.0 37 87
- 0.348784 2 3 cbr 210 ------- 0 1.0 3.0 37 87
+ 0.35 1 2 cbr 210 ------- 0 1.0 3.0 40 90
- 0.35 1 2 cbr 210 ------- 0 1.0 3.0 40 90
r 0.351285 2 3 cbr 210 ------- 0 1.0 3.0 35 85
r 0.352534 1 2 cbr 210 ------- 0 1.0 3.0 38 88
+ 0.352534 2 3 cbr 210 ------- 0 1.0 3.0 38 88
- 0.352534 2 3 cbr 210 ------- 0 1.0 3.0 38 88
+ 0.35375 1 2 cbr 210 ------- 0 1.0 3.0 41 91
- 0.35375 1 2 cbr 210 ------- 0 1.0 3.0 41 91
r 0.355035 2 3 cbr 210 ------- 0 1.0 3.0 36 86
r 0.356284 1 2 cbr 210 ------- 0 1.0 3.0 39 89
+ 0.356284 2 3 cbr 210 ------- 0 1.0 3.0 39 89
- 0.356284 2 3 cbr 210 ------- 0 1.0 3.0 39 89
+ 0.3575 1 2 cbr 210 ------- 0 1.0 3.0 42 92
- 0.3575 1 2 cbr 210 ------- 0 1.0 3.0 42 92
r 0.358785 2 3 cbr 210 ------- 0 1.0 3.0 37 87
r 0.360034 1 2 cbr 210 ------- 0 1.0 3.0 40 90
+ 0.360034 2 3 cbr 210 ------- 0 1.0 3.0 40 90
- 0.360034 2 3 cbr 210 ------- 0 1.0 3.0 40 90
+ 0.36125 1 2 cbr 210 ------- 0 1.0 3.0 43 93
- 0.36125 1 2 cbr 210 ------- 0 1.0 3.0 43 93
r 0.362535 2 3 cbr 210 ------- 0 1.0 3.0 38 88
r 0.363784 1 2 cbr 210 ------- 0 1.0 3.0 41 91
+ 0.363784 2 3 cbr 210 ------- 0 1.0 3.0 41 91
- 0.363784 2 3 cbr 210 ------- 0 1.0 3.0 41 91
+ 0.365 1 2 cbr 210 ------- 0 1.0 3.0 44 94
- 0.365 1 2 cbr 210 ------- 0 1.0 3.0 44 94
r 0.366285 2 3 cbr 210 ------- 0 1.0 3.0 39 89
r 0.367534 1 2 cbr 210 ------- 0 1.0 3.0 42 92
+ 0.367534 2 3 cbr 210 ------- 0 1.0 3.0 42 92
- 0.367534 2 3 cbr 210 ------- 0 1.0 3.0 42 92
+ 0.36875 1 2 cbr 210 ------- 0 1.0 3.0 45 95
- 0.36875 1 2 cbr 210 ------- 0 1.0 3.0 45 95
r 0.370035 2 3 cbr 210 ------- 0 1.0 3.0 40 90
r 0.371284 1 2 cbr 210 ------- 0 1.0 3.0 43 93
+ 0.371284 2 3 cbr 210 ------- 0 1.0 3.0 43 93
- 0.371284 2 3 cbr 210 ------- 0 1.0 3.0 43 93
+ 0.3725 1 2 cbr 210 ------- 0 1.0 3.0 46 96
- 0.3725 1 2 cbr 210 ------- 0 1.0 3.0 46 96
r 0.373785 2 3 cbr 210 ------- 0 1.0 3.0 41 91
r 0.375034 1 2 cbr 210 ------- 0 1.0 3.0 44 94
+ 0.375034 2 3 cbr 210 ------- 0 1.0 3.0 44 94
- 0.375034 2 3 cbr 210 ------- 0 1.0 3.0 44 94
+ 0.37625 1 2 cbr 210 ------- 0 1.0 3.0 47 97
- 0.37625 1 2 cbr 210 ------- 0 1.0 3.0 47 97
r 0.377535 2 3 cbr 210 ------- 0 1.0 3.0 42 92
r 0.378784 1 2 cbr 210 ------- 0 1.0 3.0 45 95
+ 0.378784 2 3 cbr 210 ------- 0 1.0 3.0 45 95
- 0.378784 2 3 cbr 210 ------- 0 1.0 3.0 45 95
+ 0.38 1 2 cbr 210 ------- 0 1.0 3.0 48 98
- 0.38 1 2 cbr 210 ------- 0 1.0 3.0 48 98
r 0.381285 2 3 cbr 210 ------- 0 1.0 3.0 43 93
r 0.382534 1 2 cbr 210 ------- 0 1.0 3.0 46 96
+ 0.382534 2 3 cbr 210 ------- 0 1.0 3.0 46 96
- 0.382534 2 3 cbr 210 ------- 0 1.0 3.0 46 96
+ 0.38375 1 2 cbr 210 ------- 0 1.0 3.0 49 99
- 0.38375 1 2 cbr 210 ------- 0 1.0 3.0 49 99
r 0.385035 2 3 cbr 210 ------- 0 1.0 3.0 44 94
r 0.386284 1 2 cbr 210 ------- 0 1.0 3.0 47 97
+ 0.386284 2 3 cbr 210 ------- 0 1.0 3.0 47 97
- 0.386284 2 3 cbr 210 ------- 0 1.0 3.0 47 97
+ 0.3875 1 2 cbr 210 ------- 0 1.0 3.0 50 100
- 0.3875 1 2 cbr 210 ------- 0 1.0 3.0 50 100
r 0.388785 2 3 cbr 210 ------- 0 1.0 3.0 45 95
r 0.390034 1 2 cbr 210 ------- 0 1.0 3.0 48 98
+ 0.390034 2 3 cbr 210 ------- 0 1.0 3.0 48 98
- 0.390034 2 3 cbr 210 ------- 0 1.0 3.0 48 98
+ 0.39125 1 2 cbr 210 ------- 0 1.0 3.0 51 101
- 0.39125 1 2 cbr 210 ------- 0 1.0 3.0 51 101
r 0.392535 2 3 cbr 210 ------- 0 1.0 3.0 46 96
r 0.393784 1 2 cbr 210 ------- 0 1.0 3.0 49 99
+ 0.393784 2 3 cbr 210 ------- 0 1.0 3.0 49 99
- 0.393784 2 3 cbr 210 ------- 0 1.0 3.0 49 99
+ 0.395 1 2 cbr 210 ------- 0 1.0 3.0 52 102
- 0.395 1 2 cbr 210 ------- 0 1.0 3.0 52 102
r 0.396285 2 3 cbr 210 ------- 0 1.0 3.0 47 97
r 0.397534 1 2 cbr 210 ------- 0 1.0 3.0 50 100
+ 0.397534 2 3 cbr 210 ------- 0 1.0 3.0 50 100
- 0.397534 2 3 cbr 210 ------- 0 1.0 3.0 50 100
+ 0.39875 1 2 cbr 210 ------- 0 1.0 3.0 53 103
- 0.39875 1 2 cbr 210 ------- 0 1.0 3.0 53 103
r 0.400035 2 3 cbr 210 ------- 0 1.0 3.0 48 98
r 0.401284 1 2 cbr 210 ------- 0 1.0 3.0 51 101
+ 0.401284 2 3 cbr 210 ------- 0 1.0 3.0 51 101
- 0.401284 2 3 cbr 210 ------- 0 1.0 3.0 51 101
+ 0.4025 1 2 cbr 210 ------- 0 1.0 3.0 54 104
- 0.4025 1 2 cbr 210 ------- 0 1.0 3.0 54 104
r 0.403785 2 3 cbr 210 ------- 0 1.0 3.0 49 99
r 0.405034 1 2 cbr 210 ------- 0 1.0 3.0 52 102
+ 0.405034 2 3 cbr 210 ------- 0 1.0 3.0 52 102
- 0.405034 2 3 cbr 210 ------- 0 1.0 3.0 52 102
+ 0.40625 1 2 cbr 210 ------- 0 1.0 3.0 55 105
- 0.40625 1 2 cbr 210 ------- 0 1.0 3.0 55 105
r 0.407535 2 3 cbr 210 ------- 0 1.0 3.0 50 100
r 0.408784 1 2 cbr 210 ------- 0 1.0 3.0 53 103
+ 0.408784 2 3 cbr 210 ------- 0 1.0 3.0 53 103
- 0.408784 2 3 cbr 210 ------- 0 1.0 3.0 53 103
+ 0.41 1 2 cbr 210 ------- 0 1.0 3.0 56 106
- 0.41 1 2 cbr 210 ------- 0 1.0 3.0 56 106
r 0.411285 2 3 cbr 210 ------- 0 1.0 3.0 51 101
r 0.412534 1 2 cbr 210 ------- 0 1.0 3.0 54 104
+ 0.412534 2 3 cbr 210 ------- 0 1.0 3.0 54 104
- 0.412534 2 3 cbr 210 ------- 0 1.0 3.0 54 104
+ 0.41375 1 2 cbr 210 ------- 0 1.0 3.0 57 107
- 0.41375 1 2 cbr 210 ------- 0 1.0 3.0 57 107
r 0.415035 2 3 cbr 210 ------- 0 1.0 3.0 52 102
r 0.416284 1 2 cbr 210 ------- 0 1.0 3.0 55 105
+ 0.416284 2 3 cbr 210 ------- 0 1.0 3.0 55 105
- 0.416284 2 3 cbr 210 ------- 0 1.0 3.0 55 105
+ 0.4175 1 2 cbr 210 ------- 0 1.0 3.0 58 108
- 0.4175 1 2 cbr 210 ------- 0 1.0 3.0 58 108
r 0.418785 2 3 cbr 210 ------- 0 1.0 3.0 53 103
r 0.420034 1 2 cbr 210 ------- 0 1.0 3.0 56 106
+ 0.420034 2 3 cbr 210 ------- 0 1.0 3.0 56 106
- 0.420034 2 3 cbr 210 ------- 0 1.0 3.0 56 106
+ 0.42125 1 2 cbr 210 ------- 0 1.0 3.0 59 109
- 0.42125 1 2 cbr 210 ------- 0 1.0 3.0 59 109
r 0.422535 2 3 cbr 210 ------- 0 1.0 3.0 54 104
r 0.423784 1 2 cbr 210 ------- 0 1.0 3.0 57 107
+ 0.423784 2 3 cbr 210 ------- 0 1.0 3.0 57 107
- 0.423784 2 3 cbr 210 ------- 0 1.0 3.0 57 107
+ 0.425 1 2 cbr 210 ------- 0 1.0 3.0 60 110
- 0.425 1 2 cbr 210 ------- 0 1.0 3.0 60 110
r 0.426285 2 3 cbr 210 ------- 0 1.0 3.0 55 105
r 0.427534 1 2 cbr 210 ------- 0 1.0 3.0 58 108
+ 0.427534 2 3 cbr 210 ------- 0 1.0 3.0 58 108
- 0.427534 2 3 cbr 210 ------- 0 1.0 3.0 58 108
+ 0.42875 1 2 cbr 210 ------- 0 1.0 3.0 61 111
- 0.42875 1 2 cbr 210 ------- 0 1.0 3.0 61 111
r 0.430035 2 3 cbr 210 ------- 0 1.0 3.0 56 106
r 0.431284 1 2 cbr 210 ------- 0 1.0 3.0 59 109
+ 0.431284 2 3 cbr 210 ------- 0 1.0 3.0 59 109
- 0.431284 2 3 cbr 210 ------- 0 1.0 3.0 59 109
+ 0.4325 1 2 cbr 210 ------- 0 1.0 3.0 62 112
- 0.4325 1 2 cbr 210 ------- 0 1.0 3.0 62 112
r 0.433785 2 3 cbr 210 ------- 0 1.0 3.0 57 107
r 0.435034 1 2 cbr 210 ------- 0 1.0 3.0 60 110
+ 0.435034 2 3 cbr 210 ------- 0 1.0 3.0 60 110
- 0.435034 2 3 cbr 210 ------- 0 1.0 3.0 60 110
+ 0.43625 1 2 cbr 210 ------- 0 1.0 3.0 63 113
- 0.43625 1 2 cbr 210 ------- 0 1.0 3.0 63 113
r 0.437535 2 3 cbr 210 ------- 0 1.0 3.0 58 108
r 0.438784 1 2 cbr 210 ------- 0 1.0 3.0 61 111
+ 0.438784 2 3 cbr 210 ------- 0 1.0 3.0 61 111
- 0.438784 2 3 cbr 210 ------- 0 1.0 3.0 61 111
+ 0.44 1 2 cbr 210 ------- 0 1.0 3.0 64 114
- 0.44 1 2 cbr 210 ------- 0 1.0 3.0 64 114
r 0.441285 2 3 cbr 210 ------- 0 1.0 3.0 59 109
r 0.442534 1 2 cbr 210 ------- 0 1.0 3.0 62 112
+ 0.442534 2 3 cbr 210 ------- 0 1.0 3.0 62 112
- 0.442534 2 3 cbr 210 ------- 0 1.0 3.0 62 112
+ 0.44375 1 2 cbr 210 ------- 0 1.0 3.0 65 115
- 0.44375 1 2 cbr 210 ------- 0 1.0 3.0 65 115
r 0.445035 2 3 cbr 210 ------- 0 1.0 3.0 60 110
r 0.446284 1 2 cbr 210 ------- 0 1.0 3.0 63 113
+ 0.446284 2 3 cbr 210 ------- 0 1.0 3.0 63 113
- 0.446284 2 3 cbr 210 ------- 0 1.0 3.0 63 113
+ 0.4475 1 2 cbr 210 ------- 0 1.0 3.0 66 116
- 0.4475 1 2 cbr 210 ------- 0 1.0 3.0 66 116
r 0.448785 2 3 cbr 210 ------- 0 1.0 3.0 61 111
r 0.450034 1 2 cbr 210 ------- 0 1.0 3.0 64 114
+ 0.450034 2 3 cbr 210 ------- 0 1.0 3.0 64 114
- 0.450034 2 3 cbr 210 ------- 0 1.0 3.0 64 114
+ 0.45125 1 2 cbr 210 ------- 0 1.0 3.0 67 117
- 0.45125 1 2 cbr 210 ------- 0 1.0 3.0 67 117
r 0.452535 2 3 cbr 210 ------- 0 1.0 3.0 62 112
r 0.453784 1 2 cbr 210 ------- 0 1.0 3.0 65 115
+ 0.453784 2 3 cbr 210 ------- 0 1.0 3.0 65 115
- 0.453784 2 3 cbr 210 ------- 0 1.0 3.0 65 115
+ 0.455 1 2 cbr 210 ------- 0 1.0 3.0 68 118
- 0.455 1 2 cbr 210 ------- 0 1.0 3.0 68 118
r 0.456285 2 3 cbr 210 ------- 0 1.0 3.0 63 113
r 0.457534 1 2 cbr 210 ------- 0 1.0 3.0 66 116
+ 0.457534 2 3 cbr 210 ------- 0 1.0 3.0 66 116
- 0.457534 2 3 cbr 210 ------- 0 1.0 3.0 66 116
+ 0.45875 1 2 cbr 210 ------- 0 1.0 3.0 69 119
- 0.45875 1 2 cbr 210 ------- 0 1.0 3.0 69 119
r 0.460035 2 3 cbr 210 ------- 0 1.0 3.0 64 114
r 0.461284 1 2 cbr 210 ------- 0 1.0 3.0 67 117
+ 0.461284 2 3 cbr 210 ------- 0 1.0 3.0 67 117
- 0.461284 2 3 cbr 210 ------- 0 1.0 3.0 67 117
+ 0.4625 1 2 cbr 210 ------- 0 1.0 3.0 70 120
- 0.4625 1 2 cbr 210 ------- 0 1.0 3.0 70 120
r 0.463785 2 3 cbr 210 ------- 0 1.0 3.0 65 115
r 0.465034 1 2 cbr 210 ------- 0 1.0 3.0 68 118
+ 0.465034 2 3 cbr 210 ------- 0 1.0 3.0 68 118
- 0.465034 2 3 cbr 210 ------- 0 1.0 3.0 68 118
+ 0.46625 1 2 cbr 210 ------- 0 1.0 3.0 71 121
- 0.46625 1 2 cbr 210 ------- 0 1.0 3.0 71 121
r 0.467535 2 3 cbr 210 ------- 0 1.0 3.0 66 116
r 0.468784 1 2 cbr 210 ------- 0 1.0 3.0 69 119
+ 0.468784 2 3 cbr 210 ------- 0 1.0 3.0 69 119
- 0.468784 2 3 cbr 210 ------- 0 1.0 3.0 69 119
+ 0.47 1 2 cbr 210 ------- 0 1.0 3.0 72 122
- 0.47 1 2 cbr 210 ------- 0 1.0 3.0 72 122
r 0.471285 2 3 cbr 210 ------- 0 1.0 3.0 67 117
r 0.472534 1 2 cbr 210 ------- 0 1.0 3.0 70 120
+ 0.472534 2 3 cbr 210 ------- 0 1.0 3.0 70 120
- 0.472534 2 3 cbr 210 ------- 0 1.0 3.0 70 120
+ 0.47375 1 2 cbr 210 ------- 0 1.0 3.0 73 123
- 0.47375 1 2 cbr 210 ------- 0 1.0 3.0 73 123
r 0.475035 2 3 cbr 210 ------- 0 1.0 3.0 68 118
r 0.476284 1 2 cbr 210 ------- 0 1.0 3.0 71 121
+ 0.476284 2 3 cbr 210 ------- 0 1.0 3.0 71 121
- 0.476284 2 3 cbr 210 ------- 0 1.0 3.0 71 121
+ 0.4775 1 2 cbr 210 ------- 0 1.0 3.0 74 124
- 0.4775 1 2 cbr 210 ------- 0 1.0 3.0 74 124
r 0.478785 2 3 cbr 210 ------- 0 1.0 3.0 69 119
r 0.480034 1 2 cbr 210 ------- 0 1.0 3.0 72 122
+ 0.480034 2 3 cbr 210 ------- 0 1.0 3.0 72 122
- 0.480034 2 3 cbr 210 ------- 0 1.0 3.0 72 122
+ 0.48125 1 2 cbr 210 ------- 0 1.0 3.0 75 125
- 0.48125 1 2 cbr 210 ------- 0 1.0 3.0 75 125
r 0.482535 2 3 cbr 210 ------- 0 1.0 3.0 70 120
r 0.483784 1 2 cbr 210 ------- 0 1.0 3.0 73 123
+ 0.483784 2 3 cbr 210 ------- 0 1.0 3.0 73 123
- 0.483784 2 3 cbr 210 ------- 0 1.0 3.0 73 123
+ 0.485 1 2 cbr 210 ------- 0 1.0 3.0 76 126
- 0.485 1 2 cbr 210 ------- 0 1.0 3.0 76 126
r 0.486285 2 3 cbr 210 ------- 0 1.0 3.0 71 121
r 0.487534 1 2 cbr 210 ------- 0 1.0 3.0 74 124
+ 0.487534 2 3 cbr 210 ------- 0 1.0 3.0 74 124
- 0.487534 2 3 cbr 210 ------- 0 1.0 3.0 74 124
+ 0.48875 1 2 cbr 210 ------- 0 1.0 3.0 77 127
- 0.48875 1 2 cbr 210 ------- 0 1.0 3.0 77 127
r 0.490035 2 3 cbr 210 ------- 0 1.0 3.0 72 122
r 0.491284 1 2 cbr 210 ------- 0 1.0 3.0 75 125
+ 0.491284 2 3 cbr 210 ------- 0 1.0 3.0 75 125
- 0.491284 2 3 cbr 210 ------- 0 1.0 3.0 75 125
+ 0.4925 1 2 cbr 210 ------- 0 1.0 3.0 78 128
- 0.4925 1 2 cbr 210 ------- 0 1.0 3.0 78 128
r 0.493785 2 3 cbr 210 ------- 0 1.0 3.0 73 123
r 0.495034 1 2 cbr 210 ------- 0 1.0 3.0 76 126
+ 0.495034 2 3 cbr 210 ------- 0 1.0 3.0 76 126
- 0.495034 2 3 cbr 210 ------- 0 1.0 3.0 76 126
+ 0.49625 1 2 cbr 210 ------- 0 1.0 3.0 79 129
- 0.49625 1 2 cbr 210 ------- 0 1.0 3.0 79 129
r 0.497535 2 3 cbr 210 ------- 0 1.0 3.0 74 124
r 0.498784 1 2 cbr 210 ------- 0 1.0 3.0 77 127
+ 0.498784 2 3 cbr 210 ------- 0 1.0 3.0 77 127
- 0.498784 2 3 cbr 210 ------- 0 1.0 3.0 77 127
+ 0.5 1 2 cbr 210 ------- 0 1.0 3.0 80 130
- 0.5 1 2 cbr 210 ------- 0 1.0 3.0 80 130
r 0.501285 2 3 cbr 210 ------- 0 1.0 3.0 75 125
r 0.502534 1 2 cbr 210 ------- 0 1.0 3.0 78 128
+ 0.502534 2 3 cbr 210 ------- 0 1.0 3.0 78 128
- 0.502534 2 3 cbr 210 ------- 0 1.0 3.0 78 128
+ 0.50375 1 2 cbr 210 ------- 0 1.0 3.0 81 131
- 0.50375 1 2 cbr 210 ------- 0 1.0 3.0 81 131
r 0.505035 2 3 cbr 210 ------- 0 1.0 3.0 76 126
r 0.506284 1 2 cbr 210 ------- 0 1.0 3.0 79 129
+ 0.506284 2 3 cbr 210 ------- 0 1.0 3.0 79 129
- 0.506284 2 3 cbr 210 ------- 0 1.0 3.0 79 129
+ 0.5075 1 2 cbr 210 ------- 0 1.0 3.0 82 132
- 0.5075 1 2 cbr 210 ------- 0 1.0 3.0 82 132
r 0.508785 2 3 cbr 210 ------- 0 1.0 3.0 77 127
r 0.510034 1 2 cbr 210 ------- 0 1.0 3.0 80 130
+ 0.510034 2 3 cbr 210 ------- 0 1.0 3.0 80 130
- 0.510034 2 3 cbr 210 ------- 0 1.0 3.0 80 130
+ 0.51125 1 2 cbr 210 ------- 0 1.0 3.0 83 133
- 0.51125 1 2 cbr 210 ------- 0 1.0 3.0 83 133
r 0.512535 2 3 cbr 210 ------- 0 1.0 3.0 78 128
r 0.513784 1 2 cbr 210 ------- 0 1.0 3.0 81 131
+ 0.513784 2 3 cbr 210 ------- 0 1.0 3.0 81 131
- 0.513784 2 3 cbr 210 ------- 0 1.0 3.0 81 131
+ 0.515 1 2 cbr 210 ------- 0 1.0 3.0 84 134
- 0.515 1 2 cbr 210 ------- 0 1.0 3.0 84 134
r 0.516285 2 3 cbr 210 ------- 0 1.0 3.0 79 129
r 0.517534 1 2 cbr 210 ------- 0 1.0 3.0 82 132
+ 0.517534 2 3 cbr 210 ------- 0 1.0 3.0 82 132
- 0.517534 2 3 cbr 210 ------- 0 1.0 3.0 82 132
+ 0.51875 1 2 cbr 210 ------- 0 1.0 3.0 85 135
- 0.51875 1 2 cbr 210 ------- 0 1.0 3.0 85 135
r 0.520035 2 3 cbr 210 ------- 0 1.0 3.0 80 130
r 0.521284 1 2 cbr 210 ------- 0 1.0 3.0 83 133
+ 0.521284 2 3 cbr 210 ------- 0 1.0 3.0 83 133
- 0.521284 2 3 cbr 210 ------- 0 1.0 3.0 83 133
+ 0.5225 1 2 cbr 210 ------- 0 1.0 3.0 86 136
- 0.5225 1 2 cbr 210 ------- 0 1.0 3.0 86 136
r 0.523785 2 3 cbr 210 ------- 0 1.0 3.0 81 131
r 0.525034 1 2 cbr 210 ------- 0 1.0 3.0 84 134
+ 0.525034 2 3 cbr 210 ------- 0 1.0 3.0 84 134
- 0.525034 2 3 cbr 210 ------- 0 1.0 3.0 84 134
+ 0.52625 1 2 cbr 210 ------- 0 1.0 3.0 87 137