n -t 0 -s 0 -S DLABEL -l "src1" -L ""
n -t 0 -s 5 -S DLABEL -l "dest1" -L ""
n -t 0 -s 2 -S DLABEL -l "src2" -L ""
n -t 0 -s 3 -S DLABEL -l "dest2" -L ""
V -t * -v 1.0a5 -a 0
A -t * -n 1 -p 0 -o 0x7fffffff -c 30 -a 1
A -t * -h 1 -m 1073741823 -s 0
n -t * -a 4 -s 4 -S UP -v circle -c black -i black
n -t * -a 0 -s 0 -S UP -v circle -c magenta -i magenta
n -t * -a 5 -s 5 -S UP -v circle -c blue -i blue
n -t * -a 1 -s 1 -S UP -v circle -c black -i black
n -t * -a 2 -s 2 -S UP -v circle -c magenta -i magenta
n -t * -a 3 -s 3 -S UP -v circle -c blue -i blue
l -t * -s 4 -d 5 -S UP -r 1000000 -D 0.001 -c black
X -t * -n 6 -r 100Mb -D 100ms -o left
L -t * -s 6 -d 0 -o up
L -t * -s 6 -d 1 -o down
L -t * -s 6 -d 2 -o up
L -t * -s 6 -d 3 -o down
L -t * -s 6 -d 4 -o up
h -t 0.1 -s 0 -d 6 -p tcp -e 40 -c 0 -i 0 -a 0 -x {0.0 5.0 0 ------- null}
h -t 0.2 -s 2 -d 6 -p tcp -e 40 -c 0 -i 1 -a 0 -x {2.0 3.0 0 ------- null}
+ -t 0.2 -s 0 -d 6 -p tcp -e 40 -c 0 -i 0 -a 0 -x {0.0 5.0 0 ------- null}
- -t 0.2 -s 0 -d 6 -p tcp -e 40 -c 0 -i 0 -a 0 -x {0.0 5.0 0 ------- null}
h -t 0.2 -s 0 -d 6 -p tcp -e 40 -c 0 -i 0 -a 0 -x {0.0 5.0 -1 ------- null}
+ -t 0.3 -s 2 -d 6 -p tcp -e 40 -c 0 -i 1 -a 0 -x {2.0 3.0 0 ------- null}
- -t 0.3 -s 2 -d 6 -p tcp -e 40 -c 0 -i 1 -a 0 -x {2.0 3.0 0 ------- null}
h -t 0.3 -s 2 -d 6 -p tcp -e 40 -c 0 -i 1 -a 0 -x {2.0 3.0 -1 ------- null}
r -t 0.30000912 -s 6 -d 4 -p tcp -e 40 -c 0 -i 0 -a 0 -x {0.0 5.0 0 ------- null}
+ -t 0.30000912 -s 4 -d 5 -p tcp -e 40 -c 0 -i 0 -a 0 -x {0.0 5.0 0 ------- null}
- -t 0.30000912 -s 4 -d 5 -p tcp -e 40 -c 0 -i 0 -a 0 -x {0.0 5.0 0 ------- null}
h -t 0.30000912 -s 4 -d 5 -p tcp -e 40 -c 0 -i 0 -a 0 -x {0.0 5.0 -1 ------- null}
r -t 0.30132912 -s 4 -d 5 -p tcp -e 40 -c 0 -i 0 -a 0 -x {0.0 5.0 0 ------- null}
+ -t 0.30132912 -s 5 -d 4 -p ack -e 40 -c 0 -i 2 -a 0 -x {5.0 0.0 0 ------- null}
- -t 0.30132912 -s 5 -d 4 -p ack -e 40 -c 0 -i 2 -a 0 -x {5.0 0.0 0 ------- null}
h -t 0.30132912 -s 5 -d 4 -p ack -e 40 -c 0 -i 2 -a 0 -x {5.0 0.0 -1 ------- null}
r -t 0.30264912 -s 5 -d 4 -p ack -e 40 -c 0 -i 2 -a 0 -x {5.0 0.0 0 ------- null}
h -t 0.30264912 -s 4 -d 6 -p ack -e 40 -c 0 -i 2 -a 0 -x {5.0 0.0 0 ------- null}
r -t 0.40000912 -s 6 -d 3 -p tcp -e 40 -c 0 -i 1 -a 0 -x {2.0 3.0 0 ------- null}
h -t 0.40000912 -s 3 -d 6 -p ack -e 40 -c 0 -i 3 -a 0 -x {3.0 2.0 0 ------- null}
+ -t 0.40264912 -s 4 -d 6 -p ack -e 40 -c 0 -i 2 -a 0 -x {5.0 0.0 0 ------- null}
- -t 0.40264912 -s 4 -d 6 -p ack -e 40 -c 0 -i 2 -a 0 -x {5.0 0.0 0 ------- null}
h -t 0.40264912 -s 4 -d 6 -p ack -e 40 -c 0 -i 2 -a 0 -x {5.0 0.0 -1 ------- null}
+ -t 0.50000912 -s 3 -d 6 -p ack -e 40 -c 0 -i 3 -a 0 -x {3.0 2.0 0 ------- null}
- -t 0.50000912 -s 3 -d 6 -p ack -e 40 -c 0 -i 3 -a 0 -x {3.0 2.0 0 ------- null}
h -t 0.50000912 -s 3 -d 6 -p ack -e 40 -c 0 -i 3 -a 0 -x {3.0 2.0 -1 ------- null}
r -t 0.50265824 -s 6 -d 0 -p ack -e 40 -c 0 -i 2 -a 0 -x {5.0 0.0 0 ------- null}
h -t 0.50265824 -s 0 -d 6 -p tcp -e 1040 -c 0 -i 4 -a 0 -x {0.0 5.0 1 ------- null}
h -t 0.50265824 -s 0 -d 6 -p tcp -e 1040 -c 0 -i 5 -a 0 -x {0.0 5.0 2 ------- null}
r -t 0.60001824 -s 6 -d 2 -p ack -e 40 -c 0 -i 3 -a 0 -x {3.0 2.0 0 ------- null}
h -t 0.60001824 -s 2 -d 6 -p tcp -e 1040 -c 0 -i 6 -a 0 -x {2.0 3.0 1 ------- null}
h -t 0.60001824 -s 2 -d 6 -p tcp -e 1040 -c 0 -i 7 -a 0 -x {2.0 3.0 2 ------- null}
+ -t 0.60265824 -s 0 -d 6 -p tcp -e 1040 -c 0 -i 4 -a 0 -x {0.0 5.0 1 ------- null}
- -t 0.60265824 -s 0 -d 6 -p tcp -e 1040 -c 0 -i 4 -a 0 -x {0.0 5.0 1 ------- null}
h -t 0.60265824 -s 0 -d 6 -p tcp -e 1040 -c 0 -i 4 -a 0 -x {0.0 5.0 -1 ------- null}
+ -t 0.60265824 -s 0 -d 6 -p tcp -e 1040 -c 0 -i 5 -a 0 -x {0.0 5.0 2 ------- null}
- -t 0.60274352 -s 0 -d 6 -p tcp -e 1040 -c 0 -i 5 -a 0 -x {0.0 5.0 2 ------- null}
h -t 0.60274352 -s 0 -d 6 -p tcp -e 1040 -c 0 -i 5 -a 0 -x {0.0 5.0 -1 ------- null}
+ -t 0.70001824 -s 2 -d 6 -p tcp -e 1040 -c 0 -i 6 -a 0 -x {2.0 3.0 1 ------- null}
- -t 0.70001824 -s 2 -d 6 -p tcp -e 1040 -c 0 -i 6 -a 0 -x {2.0 3.0 1 ------- null}
h -t 0.70001824 -s 2 -d 6 -p tcp -e 1040 -c 0 -i 6 -a 0 -x {2.0 3.0 -1 ------- null}
+ -t 0.70001824 -s 2 -d 6 -p tcp -e 1040 -c 0 -i 7 -a 0 -x {2.0 3.0 2 ------- null}
- -t 0.70010352 -s 2 -d 6 -p tcp -e 1040 -c 0 -i 7 -a 0 -x {2.0 3.0 2 ------- null}
h -t 0.70010352 -s 2 -d 6 -p tcp -e 1040 -c 0 -i 7 -a 0 -x {2.0 3.0 -1 ------- null}
r -t 0.70274656 -s 6 -d 4 -p tcp -e 1040 -c 0 -i 4 -a 0 -x {0.0 5.0 1 ------- null}
+ -t 0.70274656 -s 4 -d 5 -p tcp -e 1040 -c 0 -i 4 -a 0 -x {0.0 5.0 1 ------- null}
- -t 0.70274656 -s 4 -d 5 -p tcp -e 1040 -c 0 -i 4 -a 0 -x {0.0 5.0 1 ------- null}
h -t 0.70274656 -s 4 -d 5 -p tcp -e 1040 -c 0 -i 4 -a 0 -x {0.0 5.0 -1 ------- null}
r -t 0.70283184 -s 6 -d 4 -p tcp -e 1040 -c 0 -i 5 -a 0 -x {0.0 5.0 2 ------- null}
+ -t 0.70283184 -s 4 -d 5 -p tcp -e 1040 -c 0 -i 5 -a 0 -x {0.0 5.0 2 ------- null}
- -t 0.71106656 -s 4 -d 5 -p tcp -e 1040 -c 0 -i 5 -a 0 -x {0.0 5.0 2 ------- null}
h -t 0.71106656 -s 4 -d 5 -p tcp -e 1040 -c 0 -i 5 -a 0 -x {0.0 5.0 -1 ------- null}
r -t 0.71206656 -s 4 -d 5 -p tcp -e 1040 -c 0 -i 4 -a 0 -x {0.0 5.0 1 ------- null}
+ -t 0.71206656 -s 5 -d 4 -p ack -e 40 -c 0 -i 8 -a 0 -x {5.0 0.0 1 ------- null}
- -t 0.71206656 -s 5 -d 4 -p ack -e 40 -c 0 -i 8 -a 0 -x {5.0 0.0 1 ------- null}
h -t 0.71206656 -s 5 -d 4 -p ack -e 40 -c 0 -i 8 -a 0 -x {5.0 0.0 -1 ------- null}
r -t 0.71338656 -s 5 -d 4 -p ack -e 40 -c 0 -i 8 -a 0 -x {5.0 0.0 1 ------- null}
h -t 0.71338656 -s 4 -d 6 -p ack -e 40 -c 0 -i 8 -a 0 -x {5.0 0.0 1 ------- null}
r -t 0.72038656 -s 4 -d 5 -p tcp -e 1040 -c 0 -i 5 -a 0 -x {0.0 5.0 2 ------- null}
+ -t 0.72038656 -s 5 -d 4 -p ack -e 40 -c 0 -i 9 -a 0 -x {5.0 0.0 2 ------- null}
- -t 0.72038656 -s 5 -d 4 -p ack -e 40 -c 0 -i 9 -a 0 -x {5.0 0.0 2 ------- null}
h -t 0.72038656 -s 5 -d 4 -p ack -e 40 -c 0 -i 9 -a 0 -x {5.0 0.0 -1 ------- null}
r -t 0.72170656 -s 5 -d 4 -p ack -e 40 -c 0 -i 9 -a 0 -x {5.0 0.0 2 ------- null}
h -t 0.72170656 -s 4 -d 6 -p ack -e 40 -c 0 -i 9 -a 0 -x {5.0 0.0 2 ------- null}
r -t 0.80010656 -s 6 -d 3 -p tcp -e 1040 -c 0 -i 6 -a 0 -x {2.0 3.0 1 ------- null}
h -t 0.80010656 -s 3 -d 6 -p ack -e 40 -c 0 -i 10 -a 0 -x {3.0 2.0 1 ------- null}
r -t 0.80019184 -s 6 -d 3 -p tcp -e 1040 -c 0 -i 7 -a 0 -x {2.0 3.0 2 ------- null}
h -t 0.80019184 -s 3 -d 6 -p ack -e 40 -c 0 -i 11 -a 0 -x {3.0 2.0 2 ------- null}
+ -t 0.81338656 -s 4 -d 6 -p ack -e 40 -c 0 -i 8 -a 0 -x {5.0 0.0 1 ------- null}
- -t 0.81338656 -s 4 -d 6 -p ack -e 40 -c 0 -i 8 -a 0 -x {5.0 0.0 1 ------- null}
h -t 0.81338656 -s 4 -d 6 -p ack -e 40 -c 0 -i 8 -a 0 -x {5.0 0.0 -1 ------- null}
+ -t 0.82170656 -s 4 -d 6 -p ack -e 40 -c 0 -i 9 -a 0 -x {5.0 0.0 2 ------- null}
- -t 0.82170656 -s 4 -d 6 -p ack -e 40 -c 0 -i 9 -a 0 -x {5.0 0.0 2 ------- null}
h -t 0.82170656 -s 4 -d 6 -p ack -e 40 -c 0 -i 9 -a 0 -x {5.0 0.0 -1 ------- null}
+ -t 0.90010656 -s 3 -d 6 -p ack -e 40 -c 0 -i 10 -a 0 -x {3.0 2.0 1 ------- null}
- -t 0.90010656 -s 3 -d 6 -p ack -e 40 -c 0 -i 10 -a 0 -x {3.0 2.0 1 ------- null}
h -t 0.90010656 -s 3 -d 6 -p ack -e 40 -c 0 -i 10 -a 0 -x {3.0 2.0 -1 ------- null}
+ -t 0.90019184 -s 3 -d 6 -p ack -e 40 -c 0 -i 11 -a 0 -x {3.0 2.0 2 ------- null}
- -t 0.90019184 -s 3 -d 6 -p ack -e 40 -c 0 -i 11 -a 0 -x {3.0 2.0 2 ------- null}
h -t 0.90019184 -s 3 -d 6 -p ack -e 40 -c 0 -i 11 -a 0 -x {3.0 2.0 -1 ------- null}
r -t 0.91339568 -s 6 -d 0 -p ack -e 40 -c 0 -i 8 -a 0 -x {5.0 0.0 1 ------- null}
h -t 0.91339568 -s 0 -d 6 -p tcp -e 1040 -c 0 -i 12 -a 0 -x {0.0 5.0 3 ------- null}
h -t 0.91339568 -s 0 -d 6 -p tcp -e 1040 -c 0 -i 13 -a 0 -x {0.0 5.0 4 ------- null}
r -t 0.92171568 -s 6 -d 0 -p ack -e 40 -c 0 -i 9 -a 0 -x {5.0 0.0 2 ------- null}
h -t 0.92171568 -s 0 -d 6 -p tcp -e 1040 -c 0 -i 14 -a 0 -x {0.0 5.0 5 ------- null}
h -t 0.92171568 -s 0 -d 6 -p tcp -e 1040 -c 0 -i 15 -a 0 -x {0.0 5.0 6 ------- null}
r -t 1.00011568 -s 6 -d 2 -p ack -e 40 -c 0 -i 10 -a 0 -x {3.0 2.0 1 ------- null}
h -t 1.00011568 -s 2 -d 6 -p tcp -e 1040 -c 0 -i 16 -a 0 -x {2.0 3.0 3 ------- null}
h -t 1.00011568 -s 2 -d 6 -p tcp -e 1040 -c 0 -i 17 -a 0 -x {2.0 3.0 4 ------- null}
r -t 1.00020096 -s 6 -d 2 -p ack -e 40 -c 0 -i 11 -a 0 -x {3.0 2.0 2 ------- null}
h -t 1.00020096 -s 2 -d 6 -p tcp -e 1040 -c 0 -i 18 -a 0 -x {2.0 3.0 5 ------- null}
h -t 1.00020096 -s 2 -d 6 -p tcp -e 1040 -c 0 -i 19 -a 0 -x {2.0 3.0 6 ------- null}
+ -t 1.01339568 -s 0 -d 6 -p tcp -e 1040 -c 0 -i 12 -a 0 -x {0.0 5.0 3 ------- null}
- -t 1.01339568 -s 0 -d 6 -p tcp -e 1040 -c 0 -i 12 -a 0 -x {0.0 5.0 3 ------- null}
h -t 1.01339568 -s 0 -d 6 -p tcp -e 1040 -c 0 -i 12 -a 0 -x {0.0 5.0 -1 ------- null}
+ -t 1.01339568 -s 0 -d 6 -p tcp -e 1040 -c 0 -i 13 -a 0 -x {0.0 5.0 4 ------- null}
- -t 1.01348096 -s 0 -d 6 -p tcp -e 1040 -c 0 -i 13 -a 0 -x {0.0 5.0 4 ------- null}
h -t 1.01348096 -s 0 -d 6 -p tcp -e 1040 -c 0 -i 13 -a 0 -x {0.0 5.0 -1 ------- null}
+ -t 1.02171568 -s 0 -d 6 -p tcp -e 1040 -c 0 -i 14 -a 0 -x {0.0 5.0 5 ------- null}
- -t 1.02171568 -s 0 -d 6 -p tcp -e 1040 -c 0 -i 14 -a 0 -x {0.0 5.0 5 ------- null}
h -t 1.02171568 -s 0 -d 6 -p tcp -e 1040 -c 0 -i 14 -a 0 -x {0.0 5.0 -1 ------- null}
+ -t 1.02171568 -s 0 -d 6 -p tcp -e 1040 -c 0 -i 15 -a 0 -x {0.0 5.0 6 ------- null}
- -t 1.02180096 -s 0 -d 6 -p tcp -e 1040 -c 0 -i 15 -a 0 -x {0.0 5.0 6 ------- null}
h -t 1.02180096 -s 0 -d 6 -p tcp -e 1040 -c 0 -i 15 -a 0 -x {0.0 5.0 -1 ------- null}
+ -t 1.10011568 -s 2 -d 6 -p tcp -e 1040 -c 0 -i 16 -a 0 -x {2.0 3.0 3 ------- null}
- -t 1.10011568 -s 2 -d 6 -p tcp -e 1040 -c 0 -i 16 -a 0 -x {2.0 3.0 3 ------- null}
h -t 1.10011568 -s 2 -d 6 -p tcp -e 1040 -c 0 -i 16 -a 0 -x {2.0 3.0 -1 ------- null}
+ -t 1.10011568 -s 2 -d 6 -p tcp -e 1040 -c 0 -i 17 -a 0 -x {2.0 3.0 4 ------- null}
- -t 1.10020096 -s 2 -d 6 -p tcp -e 1040 -c 0 -i 17 -a 0 -x {2.0 3.0 4 ------- null}
h -t 1.10020096 -s 2 -d 6 -p tcp -e 1040 -c 0 -i 17 -a 0 -x {2.0 3.0 -1 ------- null}
+ -t 1.10020096 -s 2 -d 6 -p tcp -e 1040 -c 0 -i 18 -a 0 -x {2.0 3.0 5 ------- null}
+ -t 1.10020096 -s 2 -d 6 -p tcp -e 1040 -c 0 -i 19 -a 0 -x {2.0 3.0 6 ------- null}
- -t 1.10028624 -s 2 -d 6 -p tcp -e 1040 -c 0 -i 18 -a 0 -x {2.0 3.0 5 ------- null}
h -t 1.10028624 -s 2 -d 6 -p tcp -e 1040 -c 0 -i 18 -a 0 -x {2.0 3.0 -1 ------- null}
- -t 1.10037152 -s 2 -d 6 -p tcp -e 1040 -c 0 -i 19 -a 0 -x {2.0 3.0 6 ------- null}
h -t 1.10037152 -s 2 -d 6 -p tcp -e 1040 -c 0 -i 19 -a 0 -x {2.0 3.0 -1 ------- null}
r -t 1.113484 -s 6 -d 4 -p tcp -e 1040 -c 0 -i 12 -a 0 -x {0.0 5.0 3 ------- null}
+ -t 1.113484 -s 4 -d 5 -p tcp -e 1040 -c 0 -i 12 -a 0 -x {0.0 5.0 3 ------- null}
- -t 1.113484 -s 4 -d 5 -p tcp -e 1040 -c 0 -i 12 -a 0 -x {0.0 5.0 3 ------- null}
h -t 1.113484 -s 4 -d 5 -p tcp -e 1040 -c 0 -i 12 -a 0 -x {0.0 5.0 -1 ------- null}
r -t 1.11356928 -s 6 -d 4 -p tcp -e 1040 -c 0 -i 13 -a 0 -x {0.0 5.0 4 ------- null}
+ -t 1.11356928 -s 4 -d 5 -p tcp -e 1040 -c 0 -i 13 -a 0 -x {0.0 5.0 4 ------- null}
r -t 1.121804 -s 6 -d 4 -p tcp -e 1040 -c 0 -i 14 -a 0 -x {0.0 5.0 5 ------- null}
+ -t 1.121804 -s 4 -d 5 -p tcp -e 1040 -c 0 -i 14 -a 0 -x {0.0 5.0 5 ------- null}
- -t 1.121804 -s 4 -d 5 -p tcp -e 1040 -c 0 -i 13 -a 0 -x {0.0 5.0 4 ------- null}
h -t 1.121804 -s 4 -d 5 -p tcp -e 1040 -c 0 -i 13 -a 0 -x {0.0 5.0 -1 ------- null}
r -t 1.12188928 -s 6 -d 4 -p tcp -e 1040 -c 0 -i 15 -a 0 -x {0.0 5.0 6 ------- null}
+ -t 1.12188928 -s 4 -d 5 -p tcp -e 1040 -c 0 -i 15 -a 0 -x {0.0 5.0 6 ------- null}
r -t 1.122804 -s 4 -d 5 -p tcp -e 1040 -c 0 -i 12 -a 0 -x {0.0 5.0 3 ------- null}
+ -t 1.122804 -s 5 -d 4 -p ack -e 40 -c 0 -i 20 -a 0 -x {5.0 0.0 3 ------- null}
- -t 1.122804 -s 5 -d 4 -p ack -e 40 -c 0 -i 20 -a 0 -x {5.0 0.0 3 ------- null}
h -t 1.122804 -s 5 -d 4 -p ack -e 40 -c 0 -i 20 -a 0 -x {5.0 0.0 -1 ------- null}
r -t 1.124124 -s 5 -d 4 -p ack -e 40 -c 0 -i 20 -a 0 -x {5.0 0.0 3 ------- null}
h -t 1.124124 -s 4 -d 6 -p ack -e 40 -c 0 -i 20 -a 0 -x {5.0 0.0 3 ------- null}
- -t 1.130124 -s 4 -d 5 -p tcp -e 1040 -c 0 -i 14 -a 0 -x {0.0 5.0 5 ------- null}
h -t 1.130124 -s 4 -d 5 -p tcp -e 1040 -c 0 -i 14 -a 0 -x {0.0 5.0 -1 ------- null}
r -t 1.131124 -s 4 -d 5 -p tcp -e 1040 -c 0 -i 13 -a 0 -x {0.0 5.0 4 ------- null}
+ -t 1.131124 -s 5 -d 4 -p ack -e 40 -c 0 -i 21 -a 0 -x {5.0 0.0 4 ------- null}
- -t 1.131124 -s 5 -d 4 -p ack -e 40 -c 0 -i 21 -a 0 -x {5.0 0.0 4 ------- null}
h -t 1.131124 -s 5 -d 4 -p ack -e 40 -c 0 -i 21 -a 0 -x {5.0 0.0 -1 ------- null}
r -t 1.132444 -s 5 -d 4 -p ack -e 40 -c 0 -i 21 -a 0 -x {5.0 0.0 4 ------- null}
h -t 1.132444 -s 4 -d 6 -p ack -e 40 -c 0 -i 21 -a 0 -x {5.0 0.0 4 ------- null}
- -t 1.138444 -s 4 -d 5 -p tcp -e 1040 -c 0 -i 15 -a 0 -x {0.0 5.0 6 ------- null}
h -t 1.138444 -s 4 -d 5 -p tcp -e 1040 -c 0 -i 15 -a 0 -x {0.0 5.0 -1 ------- null}
r -t 1.139444 -s 4 -d 5 -p tcp -e 1040 -c 0 -i 14 -a 0 -x {0.0 5.0 5 ------- null}
+ -t 1.139444 -s 5 -d 4 -p ack -e 40 -c 0 -i 22 -a 0 -x {5.0 0.0 5 ------- null}
- -t 1.139444 -s 5 -d 4 -p ack -e 40 -c 0 -i 22 -a 0 -x {5.0 0.0 5 ------- null}
h -t 1.139444 -s 5 -d 4 -p ack -e 40 -c 0 -i 22 -a 0 -x {5.0 0.0 -1 ------- null}
r -t 1.140764 -s 5 -d 4 -p ack -e 40 -c 0 -i 22 -a 0 -x {5.0 0.0 5 ------- null}
h -t 1.140764 -s 4 -d 6 -p ack -e 40 -c 0 -i 22 -a 0 -x {5.0 0.0 5 ------- null}
r -t 1.147764 -s 4 -d 5 -p tcp -e 1040 -c 0 -i 15 -a 0 -x {0.0 5.0 6 ------- null}
+ -t 1.147764 -s 5 -d 4 -p ack -e 40 -c 0 -i 23 -a 0 -x {5.0 0.0 6 ------- null}
- -t 1.147764 -s 5 -d 4 -p ack -e 40 -c 0 -i 23 -a 0 -x {5.0 0.0 6 ------- null}
h -t 1.147764 -s 5 -d 4 -p ack -e 40 -c 0 -i 23 -a 0 -x {5.0 0.0 -1 ------- null}
r -t 1.149084 -s 5 -d 4 -p ack -e 40 -c 0 -i 23 -a 0 -x {5.0 0.0 6 ------- null}
h -t 1.149084 -s 4 -d 6 -p ack -e 40 -c 0 -i 23 -a 0 -x {5.0 0.0 6 ------- null}
r -t 1.200204 -s 6 -d 3 -p tcp -e 1040 -c 0 -i 16 -a 0 -x {2.0 3.0 3 ------- null}
h -t 1.200204 -s 3 -d 6 -p ack -e 40 -c 0 -i 24 -a 0 -x {3.0 2.0 3 ------- null}
r -t 1.20028928 -s 6 -d 3 -p tcp -e 1040 -c 0 -i 17 -a 0 -x {2.0 3.0 4 ------- null}
h -t 1.20028928 -s 3 -d 6 -p ack -e 40 -c 0 -i 25 -a 0 -x {3.0 2.0 4 ------- null}
r -t 1.20037456 -s 6 -d 3 -p tcp -e 1040 -c 0 -i 18 -a 0 -x {2.0 3.0 5 ------- null}
h -t 1.20037456 -s 3 -d 6 -p ack -e 40 -c 0 -i 26 -a 0 -x {3.0 2.0 5 ------- null}
r -t 1.20045984 -s 6 -d 3 -p tcp -e 1040 -c 0 -i 19 -a 0 -x {2.0 3.0 6 ------- null}
h -t 1.20045984 -s 3 -d 6 -p ack -e 40 -c 0 -i 27 -a 0 -x {3.0 2.0 6 ------- null}
+ -t 1.224124 -s 4 -d 6 -p ack -e 40 -c 0 -i 20 -a 0 -x {5.0 0.0 3 ------- null}
- -t 1.224124 -s 4 -d 6 -p ack -e 40 -c 0 -i 20 -a 0 -x {5.0 0.0 3 ------- null}
h -t 1.224124 -s 4 -d 6 -p ack -e 40 -c 0 -i 20 -a 0 -x {5.0 0.0 -1 ------- null}
+ -t 1.232444 -s 4 -d 6 -p ack -e 40 -c 0 -i 21 -a 0 -x {5.0 0.0 4 ------- null}
- -t 1.232444 -s 4 -d 6 -p ack -e 40 -c 0 -i 21 -a 0 -x {5.0 0.0 4 ------- null}
h -t 1.232444 -s 4 -d 6 -p ack -e 40 -c 0 -i 21 -a 0 -x {5.0 0.0 -1 ------- null}
+ -t 1.240764 -s 4 -d 6 -p ack -e 40 -c 0 -i 22 -a 0 -x {5.0 0.0 5 ------- null}
- -t 1.240764 -s 4 -d 6 -p ack -e 40 -c 0 -i 22 -a 0 -x {5.0 0.0 5 ------- null}
h -t 1.240764 -s 4 -d 6 -p ack -e 40 -c 0 -i 22 -a 0 -x {5.0 0.0 -1 ------- null}
+ -t 1.249084 -s 4 -d 6 -p ack -e 40 -c 0 -i 23 -a 0 -x {5.0 0.0 6 ------- null}
- -t 1.249084 -s 4 -d 6 -p ack -e 40 -c 0 -i 23 -a 0 -x {5.0 0.0 6 ------- null}
h -t 1.249084 -s 4 -d 6 -p ack -e 40 -c 0 -i 23 -a 0 -x {5.0 0.0 -1 ------- null}
+ -t 1.300204 -s 3 -d 6 -p ack -e 40 -c 0 -i 24 -a 0 -x {3.0 2.0 3 ------- null}
- -t 1.300204 -s 3 -d 6 -p ack -e 40 -c 0 -i 24 -a 0 -x {3.0 2.0 3 ------- null}
h -t 1.300204 -s 3 -d 6 -p ack -e 40 -c 0 -i 24 -a 0 -x {3.0 2.0 -1 ------- null}
+ -t 1.30028928 -s 3 -d 6 -p ack -e 40 -c 0 -i 25 -a 0 -x {3.0 2.0 4 ------- null}
- -t 1.30028928 -s 3 -d 6 -p ack -e 40 -c 0 -i 25 -a 0 -x {3.0 2.0 4 ------- null}
h -t 1.30028928 -s 3 -d 6 -p ack -e 40 -c 0 -i 25 -a 0 -x {3.0 2.0 -1 ------- null}
+ -t 1.30037456 -s 3 -d 6 -p ack -e 40 -c 0 -i 26 -a 0 -x {3.0 2.0 5 ------- null}
- -t 1.30037456 -s 3 -d 6 -p ack -e 40 -c 0 -i 26 -a 0 -x {3.0 2.0 5 ------- null}
h -t 1.30037456 -s 3 -d 6 -p ack -e 40 -c 0 -i 26 -a 0 -x {3.0 2.0 -1 ------- null}
+ -t 1.30045984 -s 3 -d 6 -p ack -e 40 -c 0 -i 27 -a 0 -x {3.0 2.0 6 ------- null}
- -t 1.30045984 -s 3 -d 6 -p ack -e 40 -c 0 -i 27 -a 0 -x {3.0 2.0 6 ------- null}
h -t 1.30045984 -s 3 -d 6 -p ack -e 40 -c 0 -i 27 -a 0 -x {3.0 2.0 -1 ------- null}
r -t 1.32413312 -s 6 -d 0 -p ack -e 40 -c 0 -i 20 -a 0 -x {5.0 0.0 3 ------- null}
h -t 1.32413312 -s 0 -d 6 -p tcp -e 1040 -c 0 -i 28 -a 0 -x {0.0 5.0 7 ------- null}
h -t 1.32413312 -s 0 -d 6 -p tcp -e 1040 -c 0 -i 29 -a 0 -x {0.0 5.0 8 ------- null}
r -t 1.33245312 -s 6 -d 0 -p ack -e 40 -c 0 -i 21 -a 0 -x {5.0 0.0 4 ------- null}
h -t 1.33245312 -s 0 -d 6 -p tcp -e 1040 -c 0 -i 30 -a 0 -x {0.0 5.0 9 ------- null}
h -t 1.33245312 -s 0 -d 6 -p tcp -e 1040 -c 0 -i 31 -a 0 -x {0.0 5.0 10 ------- null}
r -t 1.34077312 -s 6 -d 0 -p ack -e 40 -c 0 -i 22 -a 0 -x {5.0 0.0 5 ------- null}
h -t 1.34077312 -s 0 -d 6 -p tcp -e 1040 -c 0 -i 32 -a 0 -x {0.0 5.0 11 ------- null}
h -t 1.34077312 -s 0 -d 6 -p tcp -e 1040 -c 0 -i 33 -a 0 -x {0.0 5.0 12 ------- null}
r -t 1.34909312 -s 6 -d 0 -p ack -e 40 -c 0 -i 23 -a 0 -x {5.0 0.0 6 ------- null}
h -t 1.34909312 -s 0 -d 6 -p tcp -e 1040 -c 0 -i 34 -a 0 -x {0.0 5.0 13 ------- null}
h -t 1.34909312 -s 0 -d 6 -p tcp -e 1040 -c 0 -i 35 -a 0 -x {0.0 5.0 14 ------- null}
r -t 1.40021312 -s 6 -d 2 -p ack -e 40 -c 0 -i 24 -a 0 -x {3.0 2.0 3 ------- null}
h -t 1.40021312 -s 2 -d 6 -p tcp -e 1040 -c 0 -i 36 -a 0 -x {2.0 3.0 7 ------- null}
h -t 1.40021312 -s 2 -d 6 -p tcp -e 1040 -c 0 -i 37 -a 0 -x {2.0 3.0 8 ------- null}
r -t 1.4002984 -s 6 -d 2 -p ack -e 40 -c 0 -i 25 -a 0 -x {3.0 2.0 4 ------- null}
h -t 1.4002984 -s 2 -d 6 -p tcp -e 1040 -c 0 -i 38 -a 0 -x {2.0 3.0 9 ------- null}
h -t 1.4002984 -s 2 -d 6 -p tcp -e 1040 -c 0 -i 39 -a 0 -x {2.0 3.0 10 ------- null}
r -t 1.40038368 -s 6 -d 2 -p ack -e 40 -c 0 -i 26 -a 0 -x {3.0 2.0 5 ------- null}
h -t 1.40038368 -s 2 -d 6 -p tcp -e 1040 -c 0 -i 40 -a 0 -x {2.0 3.0 11 ------- null}
h -t 1.40038368 -s 2 -d 6 -p tcp -e 1040 -c 0 -i 41 -a 0 -x {2.0 3.0 12 ------- null}
r -t 1.40046896 -s 6 -d 2 -p ack -e 40 -c 0 -i 27 -a 0 -x {3.0 2.0 6 ------- null}
h -t 1.40046896 -s 2 -d 6 -p tcp -e 1040 -c 0 -i 42 -a 0 -x {2.0 3.0 13 ------- null}
h -t 1.40046896 -s 2 -d 6 -p tcp -e 1040 -c 0 -i 43 -a 0 -x {2.0 3.0 14 ------- null}
+ -t 1.42413312 -s 0 -d 6 -p tcp -e 1040 -c 0 -i 28 -a 0 -x {0.0 5.0 7 ------- null}
- -t 1.42413312 -s 0 -d 6 -p tcp -e 1040 -c 0 -i 28 -a 0 -x {0.0 5.0 7 ------- null}
h -t 1.42413312 -s 0 -d 6 -p tcp -e 1040 -c 0 -i 28 -a 0 -x {0.0 5.0 -1 ------- null}
+ -t 1.42413312 -s 0 -d 6 -p tcp -e 1040 -c 0 -i 29 -a 0 -x {0.0 5.0 8 ------- null}
- -t 1.4242184 -s 0 -d 6 -p tcp -e 1040 -c 0 -i 29 -a 0 -x {0.0 5.0 8 ------- null}
h -t 1.4242184 -s 0 -d 6 -p tcp -e 1040 -c 0 -i 29 -a 0 -x {0.0 5.0 -1 ------- null}
+ -t 1.43245312 -s 0 -d 6 -p tcp -e 1040 -c 0 -i 30 -a 0 -x {0.0 5.0 9 ------- null}
- -t 1.43245312 -s 0 -d 6 -p tcp -e 1040 -c 0 -i 30 -a 0 -x {0.0 5.0 9 ------- null}
h -t 1.43245312 -s 0 -d 6 -p tcp -e 1040 -c 0 -i 30 -a 0 -x {0.0 5.0 -1 ------- null}
+ -t 1.43245312 -s 0 -d 6 -p tcp -e 1040 -c 0 -i 31 -a 0 -x {0.0 5.0 10 ------- null}
- -t 1.4325384 -s 0 -d 6 -p tcp -e 1040 -c 0 -i 31 -a 0 -x {0.0 5.0 10 ------- null}
h -t 1.4325384 -s 0 -d 6 -p tcp -e 1040 -c 0 -i 31 -a 0 -x {0.0 5.0 -1 ------- null}
+ -t 1.44077312 -s 0 -d 6 -p tcp -e 1040 -c 0 -i 32 -a 0 -x {0.0 5.0 11 ------- null}
- -t 1.44077312 -s 0 -d 6 -p tcp -e 1040 -c 0 -i 32 -a 0 -x {0.0 5.0 11 ------- null}
h -t 1.44077312 -s 0 -d 6 -p tcp -e 1040 -c 0 -i 32 -a 0 -x {0.0 5.0 -1 ------- null}
+ -t 1.44077312 -s 0 -d 6 -p tcp -e 1040 -c 0 -i 33 -a 0 -x {0.0 5.0 12 ------- null}
- -t 1.4408584 -s 0 -d 6 -p tcp -e 1040 -c 0 -i 33 -a 0 -x {0.0 5.0 12 ------- null}
h -t 1.4408584 -s 0 -d 6 -p tcp -e 1040 -c 0 -i 33 -a 0 -x {0.0 5.0 -1 ------- null}
+ -t 1.44909312 -s 0 -d 6 -p tcp -e 1040 -c 0 -i 34 -a 0 -x {0.0 5.0 13 ------- null}
- -t 1.44909312 -s 0 -d 6 -p tcp -e 1040 -c 0 -i 34 -a 0 -x {0.0 5.0 13 ------- null}
h -t 1.44909312 -s 0 -d 6 -p tcp -e 1040 -c 0 -i 34 -a 0 -x {0.0 5.0 -1 ------- null}
+ -t 1.44909312 -s 0 -d 6 -p tcp -e 1040 -c 0 -i 35 -a 0 -x {0.0 5.0 14 ------- null}
- -t 1.4491784 -s 0 -d 6 -p tcp -e 1040 -c 0 -i 35 -a 0 -x {0.0 5.0 14 ------- null}
h -t 1.4491784 -s 0 -d 6 -p tcp -e 1040 -c 0 -i 35 -a 0 -x {0.0 5.0 -1 ------- null}
+ -t 1.50021312 -s 2 -d 6 -p tcp -e 1040 -c 0 -i 36 -a 0 -x {2.0 3.0 7 ------- null}
- -t 1.50021312 -s 2 -d 6 -p tcp -e 1040 -c 0 -i 36 -a 0 -x {2.0 3.0 7 ------- null}
h -t 1.50021312 -s 2 -d 6 -p tcp -e 1040 -c 0 -i 36 -a 0 -x {2.0 3.0 -1 ------- null}
+ -t 1.50021312 -s 2 -d 6 -p tcp -e 1040 -c 0 -i 37 -a 0 -x {2.0 3.0 8 ------- null}
+ -t 1.5002984 -s 2 -d 6 -p tcp -e 1040 -c 0 -i 38 -a 0 -x {2.0 3.0 9 ------- null}
+ -t 1.5002984 -s 2 -d 6 -p tcp -e 1040 -c 0 -i 39 -a 0 -x {2.0 3.0 10 ------- null}
- -t 1.5002984 -s 2 -d 6 -p tcp -e 1040 -c 0 -i 37 -a 0 -x {2.0 3.0 8 ------- null}
h -t 1.5002984 -s 2 -d 6 -p tcp -e 1040 -c 0 -i 37 -a 0 -x {2.0 3.0 -1 ------- null}
+ -t 1.50038368 -s 2 -d 6 -p tcp -e 1040 -c 0 -i 40 -a 0 -x {2.0 3.0 11 ------- null}
+ -t 1.50038368 -s 2 -d 6 -p tcp -e 1040 -c 0 -i 41 -a 0 -x {2.0 3.0 12 ------- null}
- -t 1.50038368 -s 2 -d 6 -p tcp -e 1040 -c 0 -i 38 -a 0 -x {2.0 3.0 9 ------- null}
h -t 1.50038368 -s 2 -d 6 -p tcp -e 1040 -c 0 -i 38 -a 0 -x {2.0 3.0 -1 ------- null}
+ -t 1.50046896 -s 2 -d 6 -p tcp -e 1040 -c 0 -i 42 -a 0 -x {2.0 3.0 13 ------- null}
+ -t 1.50046896 -s 2 -d 6 -p tcp -e 1040 -c 0 -i 43 -a 0 -x {2.0 3.0 14 ------- null}
- -t 1.50046896 -s 2 -d 6 -p tcp -e 1040 -c 0 -i 39 -a 0 -x {2.0 3.0 10 ------- null}
h -t 1.50046896 -s 2 -d 6 -p tcp -e 1040 -c 0 -i 39 -a 0 -x {2.0 3.0 -1 ------- null}
- -t 1.50055424 -s 2 -d 6 -p tcp -e 1040 -c 0 -i 40 -a 0 -x {2.0 3.0 11 ------- null}
h -t 1.50055424 -s 2 -d 6 -p tcp -e 1040 -c 0 -i 40 -a 0 -x {2.0 3.0 -1 ------- null}
- -t 1.50063952 -s 2 -d 6 -p tcp -e 1040 -c 0 -i 41 -a 0 -x {2.0 3.0 12 ------- null}
h -t 1.50063952 -s 2 -d 6 -p tcp -e 1040 -c 0 -i 41 -a 0 -x {2.0 3.0 -1 ------- null}
- -t 1.5007248 -s 2 -d 6 -p tcp -e 1040 -c 0 -i 42 -a 0 -x {2.0 3.0 13 ------- null}
h -t 1.5007248 -s 2 -d 6 -p tcp -e 1040 -c 0 -i 42 -a 0 -x {2.0 3.0 -1 ------- null}
- -t 1.50081008 -s 2 -d 6 -p tcp -e 1040 -c 0 -i 43 -a 0 -x {2.0 3.0 14 ------- null}
h -t 1.50081008 -s 2 -d 6 -p tcp -e 1040 -c 0 -i 43 -a 0 -x {2.0 3.0 -1 ------- null}
r -t 1.52422144 -s 6 -d 4 -p tcp -e 1040 -c 0 -i 28 -a 0 -x {0.0 5.0 7 ------- null}
+ -t 1.52422144 -s 4 -d 5 -p tcp -e 1040 -c 0 -i 28 -a 0 -x {0.0 5.0 7 ------- null}
- -t 1.52422144 -s 4 -d 5 -p tcp -e 1040 -c 0 -i 28 -a 0 -x {0.0 5.0 7 ------- null}
h -t 1.52422144 -s 4 -d 5 -p tcp -e 1040 -c 0 -i 28 -a 0 -x {0.0 5.0 -1 ------- null}
r -t 1.52430672 -s 6 -d 4 -p tcp -e 1040 -c 0 -i 29 -a 0 -x {0.0 5.0 8 ------- null}
+ -t 1.52430672 -s 4 -d 5 -p tcp -e 1040 -c 0 -i 29 -a 0 -x {0.0 5.0 8 ------- null}
r -t 1.53254144 -s 6 -d 4 -p tcp -e 1040 -c 0 -i 30 -a 0 -x {0.0 5.0 9 ------- null}
+ -t 1.53254144 -s 4 -d 5 -p tcp -e 1040 -c 0 -i 30 -a 0 -x {0.0 5.0 9 ------- null}
- -t 1.53254144 -s 4 -d 5 -p tcp -e 1040 -c 0 -i 29 -a 0 -x {0.0 5.0 8 ------- null}
h -t 1.53254144 -s 4 -d 5 -p tcp -e 1040 -c 0 -i 29 -a 0 -x {0.0 5.0 -1 ------- null}
r -t 1.53262672 -s 6 -d 4 -p tcp -e 1040 -c 0 -i 31 -a 0 -x {0.0 5.0 10 ------- null}
+ -t 1.53262672 -s 4 -d 5 -p tcp -e 1040 -c 0 -i 31 -a 0 -x {0.0 5.0 10 ------- null}
r -t 1.53354144 -s 4 -d 5 -p tcp -e 1040 -c 0 -i 28 -a 0 -x {0.0 5.0 7 ------- null}
+ -t 1.53354144 -s 5 -d 4 -p ack -e 40 -c 0 -i 44 -a 0 -x {5.0 0.0 7 ------- null}
- -t 1.53354144 -s 5 -d 4 -p ack -e 40 -c 0 -i 44 -a 0 -x {5.0 0.0 7 ------- null}
h -t 1.53354144 -s 5 -d 4 -p ack -e 40 -c 0 -i 44 -a 0 -x {5.0 0.0 -1 ------- null}
r -t 1.53486144 -s 5 -d 4 -p ack -e 40 -c 0 -i 44 -a 0 -x {5.0 0.0 7 ------- null}
h -t 1.53486144 -s 4 -d 6 -p ack -e 40 -c 0 -i 44 -a 0 -x {5.0 0.0 7 ------- null}
r -t 1.54086144 -s 6 -d 4 -p tcp -e 1040 -c 0 -i 32 -a 0 -x {0.0 5.0 11 ------- null}
+ -t 1.54086144 -s 4 -d 5 -p tcp -e 1040 -c 0 -i 32 -a 0 -x {0.0 5.0 11 ------- null}
- -t 1.54086144 -s 4 -d 5 -p tcp -e 1040 -c 0 -i 30 -a 0 -x {0.0 5.0 9 ------- null}
h -t 1.54086144 -s 4 -d 5 -p tcp -e 1040 -c 0 -i 30 -a 0 -x {0.0 5.0 -1 ------- null}
r -t 1.54094672 -s 6 -d 4 -p tcp -e 1040 -c 0 -i 33 -a 0 -x {0.0 5.0 12 ------- null}
+ -t 1.54094672 -s 4 -d 5 -p tcp -e 1040 -c 0 -i 33 -a 0 -x {0.0 5.0 12 ------- null}
r -t 1.54186144 -s 4 -d 5 -p tcp -e 1040 -c 0 -i 29 -a 0 -x {0.0 5.0 8 ------- null}
+ -t 1.54186144 -s 5 -d 4 -p ack -e 40 -c 0 -i 45 -a 0 -x {5.0 0.0 8 ------- null}
- -t 1.54186144 -s 5 -d 4 -p ack -e 40 -c 0 -i 45 -a 0 -x {5.0 0.0 8 ------- null}
h -t 1.54186144 -s 5 -d 4 -p ack -e 40 -c 0 -i 45 -a 0 -x {5.0 0.0 -1 ------- null}
r -t 1.54318144 -s 5 -d 4 -p ack -e 40 -c 0 -i 45 -a 0 -x {5.0 0.0 8 ------- null}
h -t 1.54318144 -s 4 -d 6 -p ack -e 40 -c 0 -i 45 -a 0 -x {5.0 0.0 8 ------- null}
r -t 1.54918144 -s 6 -d 4 -p tcp -e 1040 -c 0 -i 34 -a 0 -x {0.0 5.0 13 ------- null}
+ -t 1.54918144 -s 4 -d 5 -p tcp -e 1040 -c 0 -i 34 -a 0 -x {0.0 5.0 13 ------- null}
- -t 1.54918144 -s 4 -d 5 -p tcp -e 1040 -c 0 -i 31 -a 0 -x {0.0 5.0 10 ------- null}
h -t 1.54918144 -s 4 -d 5 -p tcp -e 1040 -c 0 -i 31 -a 0 -x {0.0 5.0 -1 ------- null}
r -t 1.54926672 -s 6 -d 4 -p tcp -e 1040 -c 0 -i 35 -a 0 -x {0.0 5.0 14 ------- null}
+ -t 1.54926672 -s 4 -d 5 -p tcp -e 1040 -c 0 -i 35 -a 0 -x {0.0 5.0 14 ------- null}
r -t 1.55018144 -s 4 -d 5 -p tcp -e 1040 -c 0 -i 30 -a 0 -x {0.0 5.0 9 ------- null}
+ -t 1.55018144 -s 5 -d 4 -p ack -e 40 -c 0 -i 46 -a 0 -x {5.0 0.0 9 ------- null}
- -t 1.55018144 -s 5 -d 4 -p ack -e 40 -c 0 -i 46 -a 0 -x {5.0 0.0 9 ------- null}
h -t 1.55018144 -s 5 -d 4 -p ack -e 40 -c 0 -i 46 -a 0 -x {5.0 0.0 -1 ------- null}
r -t 1.55150144 -s 5 -d 4 -p ack -e 40 -c 0 -i 46 -a 0 -x {5.0 0.0 9 ------- null}
h -t 1.55150144 -s 4 -d 6 -p ack -e 40 -c 0 -i 46 -a 0 -x {5.0 0.0 9 ------- null}
- -t 1.55750144 -s 4 -d 5 -p tcp -e 1040 -c 0 -i 32 -a 0 -x {0.0 5.0 11 ------- null}
h -t 1.55750144 -s 4 -d 5 -p tcp -e 1040 -c 0 -i 32 -a 0 -x {0.0 5.0 -1 ------- null}
r -t 1.55850144 -s 4 -d 5 -p tcp -e 1040 -c 0 -i 31 -a 0 -x {0.0 5.0 10 ------- null}
+ -t 1.55850144 -s 5 -d 4 -p ack -e 40 -c 0 -i 47 -a 0 -x {5.0 0.0 10 ------- null}
- -t 1.55850144 -s 5 -d 4 -p ack -e 40 -c 0 -i 47 -a 0 -x {5.0 0.0 10 ------- null}
h -t 1.55850144 -s 5 -d 4 -p ack -e 40 -c 0 -i 47 -a 0 -x {5.0 0.0 -1 ------- null}
r -t 1.55982144 -s 5 -d 4 -p ack -e 40 -c 0 -i 47 -a 0 -x {5.0 0.0 10 ------- null}
h -t 1.55982144 -s 4 -d 6 -p ack -e 40 -c 0 -i 47 -a 0 -x {5.0 0.0 10 ------- null}
- -t 1.56582144 -s 4 -d 5 -p tcp -e 1040 -c 0 -i 33 -a 0 -x {0.0 5.0 12 ------- null}
h -t 1.56582144 -s 4 -d 5 -p tcp -e 1040 -c 0 -i 33 -a 0 -x {0.0 5.0 -1 ------- null}
r -t 1.56682144 -s 4 -d 5 -p tcp -e 1040 -c 0 -i 32 -a 0 -x {0.0 5.0 11 ------- null}
+ -t 1.56682144 -s 5 -d 4 -p ack -e 40 -c 0 -i 48 -a 0 -x {5.0 0.0 11 ------- null}
- -t 1.56682144 -s 5 -d 4 -p ack -e 40 -c 0 -i 48 -a 0 -x {5.0 0.0 11 ------- null}
h -t 1.56682144 -s 5 -d 4 -p ack -e 40 -c 0 -i 48 -a 0 -x {5.0 0.0 -1 ------- null}
r -t 1.56814144 -s 5 -d 4 -p ack -e 40 -c 0 -i 48 -a 0 -x {5.0 0.0 11 ------- null}
h -t 1.56814144 -s 4 -d 6 -p ack -e 40 -c 0 -i 48 -a 0 -x {5.0 0.0 11 ------- null}
- -t 1.57414144 -s 4 -d 5 -p tcp -e 1040 -c 0 -i 34 -a 0 -x {0.0 5.0 13 ------- null}
h -t 1.57414144 -s 4 -d 5 -p tcp -e 1040 -c 0 -i 34 -a 0 -x {0.0 5.0 -1 ------- null}
r -t 1.57514144 -s 4 -d 5 -p tcp -e 1040 -c 0 -i 33 -a 0 -x {0.0 5.0 12 ------- null}
+ -t 1.57514144 -s 5 -d 4 -p ack -e 40 -c 0 -i 49 -a 0 -x {5.0 0.0 12 ------- null}
- -t 1.57514144 -s 5 -d 4 -p ack -e 40 -c 0 -i 49 -a 0 -x {5.0 0.0 12 ------- null}
h -t 1.57514144 -s 5 -d 4 -p ack -e 40 -c 0 -i 49 -a 0 -x {5.0 0.0 -1 ------- null}
r -t 1.57646144 -s 5 -d 4 -p ack -e 40 -c 0 -i 49 -a 0 -x {5.0 0.0 12 ------- null}
h -t 1.57646144 -s 4 -d 6 -p ack -e 40 -c 0 -i 49 -a 0 -x {5.0 0.0 12 ------- null}
- -t 1.58246144 -s 4 -d 5 -p tcp -e 1040 -c 0 -i 35 -a 0 -x {0.0 5.0 14 ------- null}
h -t 1.58246144 -s 4 -d 5 -p tcp -e 1040 -c 0 -i 35 -a 0 -x {0.0 5.0 -1 ------- null}
r -t 1.58346144 -s 4 -d 5 -p tcp -e 1040 -c 0 -i 34 -a 0 -x {0.0 5.0 13 ------- null}
+ -t 1.58346144 -s 5 -d 4 -p ack -e 40 -c 0 -i 50 -a 0 -x {5.0 0.0 13 ------- null}
- -t 1.58346144 -s 5 -d 4 -p ack -e 40 -c 0 -i 50 -a 0 -x {5.0 0.0 13 ------- null}
h -t 1.58346144 -s 5 -d 4 -p ack -e 40 -c 0 -i 50 -a 0 -x {5.0 0.0 -1 ------- null}
r -t 1.58478144 -s 5 -d 4 -p ack -e 40 -c 0 -i 50 -a 0 -x {5.0 0.0 13 ------- null}
h -t 1.58478144 -s 4 -d 6 -p ack -e 40 -c 0 -i 50 -a 0 -x {5.0 0.0 13 ------- null}
r -t 1.59178144 -s 4 -d 5 -p tcp -e 1040 -c 0 -i 35 -a 0 -x {0.0 5.0 14 ------- null}
+ -t 1.59178144 -s 5 -d 4 -p ack -e 40 -c 0 -i 51 -a 0 -x {5.0 0.0 14 ------- null}
- -t 1.59178144 -s 5 -d 4 -p ack -e 40 -c 0 -i 51 -a 0 -x {5.0 0.0 14 ------- null}
h -t 1.59178144 -s 5 -d 4 -p ack -e 40 -c 0 -i 51 -a 0 -x {5.0 0.0 -1 ------- null}
r -t 1.59310144 -s 5 -d 4 -p ack -e 40 -c 0 -i 51 -a 0 -x {5.0 0.0 14 ------- null}
h -t 1.59310144 -s 4 -d 6 -p ack -e 40 -c 0 -i 51 -a 0 -x {5.0 0.0 14 ------- null}
r -t 1.60030144 -s 6 -d 3 -p tcp -e 1040 -c 0 -i 36 -a 0 -x {2.0 3.0 7 ------- null}
h -t 1.60030144 -s 3 -d 6 -p ack -e 40 -c 0 -i 52 -a 0 -x {3.0 2.0 7 ------- null}
r -t 1.60038672 -s 6 -d 3 -p tcp -e 1040 -c 0 -i 37 -a 0 -x {2.0 3.0 8 ------- null}
h -t 1.60038672 -s 3 -d 6 -p ack -e 40 -c 0 -i 53 -a 0 -x {3.0 2.0 8 ------- null}
r -t 1.600472 -s 6 -d 3 -p tcp -e 1040 -c 0 -i 38 -a 0 -x {2.0 3.0 9 ------- null}
h -t 1.600472 -s 3 -d 6 -p ack -e 40 -c 0 -i 54 -a 0 -x {3.0 2.0 9 ------- null}
r -t 1.60055728 -s 6 -d 3 -p tcp -e 1040 -c 0 -i 39 -a 0 -x {2.0 3.0 10 ------- null}
h -t 1.60055728 -s 3 -d 6 -p ack -e 40 -c 0 -i 55 -a 0 -x {3.0 2.0 10 ------- null}