+ 0.1 0 4 ping 5000 ------- 0 0.0 4.0 -1 0
- 0.1 0 4 ping 5000 ------- 0 0.0 4.0 -1 0
+ 0.1 3 4 ping 5000 ------- 0 3.0 5.0 -1 1
- 0.1 3 4 ping 5000 ------- 0 3.0 5.0 -1 1
r 0.11004 0 4 ping 5000 ------- 0 0.0 4.0 -1 0
+ 0.11004 4 0 ping 64 ------- 0 4.0 0.0 -1 2
- 0.11004 4 0 ping 64 ------- 0 4.0 0.0 -1 2
r 0.1104 3 4 ping 5000 ------- 0 3.0 5.0 -1 1
+ 0.1104 4 5 ping 5000 ------- 0 3.0 5.0 -1 1
- 0.1104 4 5 ping 5000 ------- 0 3.0 5.0 -1 1
r 0.12004 4 0 ping 64 ------- 0 4.0 0.0 -1 2
r 0.1224 4 5 ping 5000 ------- 0 3.0 5.0 -1 1
+ 0.1224 5 4 ping 64 ------- 0 5.0 3.0 -1 3
- 0.1224 5 4 ping 64 ------- 0 5.0 3.0 -1 3
r 0.132426 5 4 ping 64 ------- 0 5.0 3.0 -1 3
+ 0.132426 4 3 ping 64 ------- 0 5.0 3.0 -1 3
- 0.132426 4 3 ping 64 ------- 0 5.0 3.0 -1 3
r 0.142431 4 3 ping 64 ------- 0 5.0 3.0 -1 3
+ 0.2 0 4 ping 5000 ------- 0 0.0 4.0 -1 4
- 0.2 0 4 ping 5000 ------- 0 0.0 4.0 -1 4
+ 0.2 3 4 ping 5000 ------- 0 3.0 5.0 -1 5
- 0.2 3 4 ping 5000 ------- 0 3.0 5.0 -1 5
r 0.21004 0 4 ping 5000 ------- 0 0.0 4.0 -1 4
+ 0.21004 4 0 ping 64 ------- 0 4.0 0.0 -1 6
- 0.21004 4 0 ping 64 ------- 0 4.0 0.0 -1 6
r 0.2104 3 4 ping 5000 ------- 0 3.0 5.0 -1 5
+ 0.2104 4 5 ping 5000 ------- 0 3.0 5.0 -1 5
- 0.2104 4 5 ping 5000 ------- 0 3.0 5.0 -1 5
r 0.22004 4 0 ping 64 ------- 0 4.0 0.0 -1 6
r 0.2224 4 5 ping 5000 ------- 0 3.0 5.0 -1 5
+ 0.2224 5 4 ping 64 ------- 0 5.0 3.0 -1 7
- 0.2224 5 4 ping 64 ------- 0 5.0 3.0 -1 7
r 0.232426 5 4 ping 64 ------- 0 5.0 3.0 -1 7
+ 0.232426 4 3 ping 64 ------- 0 5.0 3.0 -1 7
- 0.232426 4 3 ping 64 ------- 0 5.0 3.0 -1 7
r 0.242431 4 3 ping 64 ------- 0 5.0 3.0 -1 7
+ 0.3 0 4 ping 5000 ------- 0 0.0 4.0 -1 8
- 0.3 0 4 ping 5000 ------- 0 0.0 4.0 -1 8
+ 0.3 3 4 ping 5000 ------- 0 3.0 5.0 -1 9
- 0.3 3 4 ping 5000 ------- 0 3.0 5.0 -1 9
r 0.31004 0 4 ping 5000 ------- 0 0.0 4.0 -1 8
+ 0.31004 4 0 ping 64 ------- 0 4.0 0.0 -1 10
- 0.31004 4 0 ping 64 ------- 0 4.0 0.0 -1 10
r 0.3104 3 4 ping 5000 ------- 0 3.0 5.0 -1 9
+ 0.3104 4 5 ping 5000 ------- 0 3.0 5.0 -1 9
- 0.3104 4 5 ping 5000 ------- 0 3.0 5.0 -1 9
r 0.32004 4 0 ping 64 ------- 0 4.0 0.0 -1 10
r 0.3224 4 5 ping 5000 ------- 0 3.0 5.0 -1 9
+ 0.3224 5 4 ping 64 ------- 0 5.0 3.0 -1 11
- 0.3224 5 4 ping 64 ------- 0 5.0 3.0 -1 11
r 0.332426 5 4 ping 64 ------- 0 5.0 3.0 -1 11
+ 0.332426 4 3 ping 64 ------- 0 5.0 3.0 -1 11
- 0.332426 4 3 ping 64 ------- 0 5.0 3.0 -1 11
r 0.342431 4 3 ping 64 ------- 0 5.0 3.0 -1 11
+ 0.4 0 4 ping 5000 ------- 0 0.0 4.0 -1 12
- 0.4 0 4 ping 5000 ------- 0 0.0 4.0 -1 12
+ 0.4 3 4 ping 5000 ------- 0 3.0 5.0 -1 13
- 0.4 3 4 ping 5000 ------- 0 3.0 5.0 -1 13
r 0.41004 0 4 ping 5000 ------- 0 0.0 4.0 -1 12
+ 0.41004 4 0 ping 64 ------- 0 4.0 0.0 -1 14
- 0.41004 4 0 ping 64 ------- 0 4.0 0.0 -1 14
r 0.4104 3 4 ping 5000 ------- 0 3.0 5.0 -1 13
+ 0.4104 4 5 ping 5000 ------- 0 3.0 5.0 -1 13
- 0.4104 4 5 ping 5000 ------- 0 3.0 5.0 -1 13
r 0.42004 4 0 ping 64 ------- 0 4.0 0.0 -1 14
r 0.4224 4 5 ping 5000 ------- 0 3.0 5.0 -1 13
+ 0.4224 5 4 ping 64 ------- 0 5.0 3.0 -1 15
- 0.4224 5 4 ping 64 ------- 0 5.0 3.0 -1 15
r 0.432426 5 4 ping 64 ------- 0 5.0 3.0 -1 15
+ 0.432426 4 3 ping 64 ------- 0 5.0 3.0 -1 15
- 0.432426 4 3 ping 64 ------- 0 5.0 3.0 -1 15
r 0.442431 4 3 ping 64 ------- 0 5.0 3.0 -1 15
+ 0.5 0 4 ping 5000 ------- 0 0.0 4.0 -1 16
- 0.5 0 4 ping 5000 ------- 0 0.0 4.0 -1 16
+ 0.5 3 4 ping 5000 ------- 0 3.0 5.0 -1 17
- 0.5 3 4 ping 5000 ------- 0 3.0 5.0 -1 17
r 0.51004 0 4 ping 5000 ------- 0 0.0 4.0 -1 16
+ 0.51004 4 0 ping 64 ------- 0 4.0 0.0 -1 18
- 0.51004 4 0 ping 64 ------- 0 4.0 0.0 -1 18
r 0.5104 3 4 ping 5000 ------- 0 3.0 5.0 -1 17
+ 0.5104 4 5 ping 5000 ------- 0 3.0 5.0 -1 17
- 0.5104 4 5 ping 5000 ------- 0 3.0 5.0 -1 17
r 0.52004 4 0 ping 64 ------- 0 4.0 0.0 -1 18
r 0.5224 4 5 ping 5000 ------- 0 3.0 5.0 -1 17
+ 0.5224 5 4 ping 64 ------- 0 5.0 3.0 -1 19
- 0.5224 5 4 ping 64 ------- 0 5.0 3.0 -1 19
r 0.532426 5 4 ping 64 ------- 0 5.0 3.0 -1 19
+ 0.532426 4 3 ping 64 ------- 0 5.0 3.0 -1 19
- 0.532426 4 3 ping 64 ------- 0 5.0 3.0 -1 19
r 0.542431 4 3 ping 64 ------- 0 5.0 3.0 -1 19
+ 0.6 0 4 ping 5000 ------- 0 0.0 4.0 -1 20
- 0.6 0 4 ping 5000 ------- 0 0.0 4.0 -1 20
+ 0.6 3 4 ping 5000 ------- 0 3.0 5.0 -1 21
- 0.6 3 4 ping 5000 ------- 0 3.0 5.0 -1 21
r 0.61004 0 4 ping 5000 ------- 0 0.0 4.0 -1 20
+ 0.61004 4 0 ping 64 ------- 0 4.0 0.0 -1 22
- 0.61004 4 0 ping 64 ------- 0 4.0 0.0 -1 22
r 0.6104 3 4 ping 5000 ------- 0 3.0 5.0 -1 21
+ 0.6104 4 5 ping 5000 ------- 0 3.0 5.0 -1 21
- 0.6104 4 5 ping 5000 ------- 0 3.0 5.0 -1 21
r 0.62004 4 0 ping 64 ------- 0 4.0 0.0 -1 22
r 0.6224 4 5 ping 5000 ------- 0 3.0 5.0 -1 21
+ 0.6224 5 4 ping 64 ------- 0 5.0 3.0 -1 23
- 0.6224 5 4 ping 64 ------- 0 5.0 3.0 -1 23
r 0.632426 5 4 ping 64 ------- 0 5.0 3.0 -1 23
+ 0.632426 4 3 ping 64 ------- 0 5.0 3.0 -1 23
- 0.632426 4 3 ping 64 ------- 0 5.0 3.0 -1 23
r 0.642431 4 3 ping 64 ------- 0 5.0 3.0 -1 23
+ 0.7 0 4 ping 5000 ------- 0 0.0 4.0 -1 24
- 0.7 0 4 ping 5000 ------- 0 0.0 4.0 -1 24
+ 0.7 3 4 ping 5000 ------- 0 3.0 5.0 -1 25
- 0.7 3 4 ping 5000 ------- 0 3.0 5.0 -1 25
r 0.71004 0 4 ping 5000 ------- 0 0.0 4.0 -1 24
+ 0.71004 4 0 ping 64 ------- 0 4.0 0.0 -1 26
- 0.71004 4 0 ping 64 ------- 0 4.0 0.0 -1 26
r 0.7104 3 4 ping 5000 ------- 0 3.0 5.0 -1 25
+ 0.7104 4 5 ping 5000 ------- 0 3.0 5.0 -1 25
- 0.7104 4 5 ping 5000 ------- 0 3.0 5.0 -1 25
r 0.72004 4 0 ping 64 ------- 0 4.0 0.0 -1 26
r 0.7224 4 5 ping 5000 ------- 0 3.0 5.0 -1 25
+ 0.7224 5 4 ping 64 ------- 0 5.0 3.0 -1 27
- 0.7224 5 4 ping 64 ------- 0 5.0 3.0 -1 27
r 0.732426 5 4 ping 64 ------- 0 5.0 3.0 -1 27
+ 0.732426 4 3 ping 64 ------- 0 5.0 3.0 -1 27
- 0.732426 4 3 ping 64 ------- 0 5.0 3.0 -1 27
r 0.742431 4 3 ping 64 ------- 0 5.0 3.0 -1 27
+ 0.8 0 4 ping 5000 ------- 0 0.0 4.0 -1 28
- 0.8 0 4 ping 5000 ------- 0 0.0 4.0 -1 28
+ 0.8 3 4 ping 5000 ------- 0 3.0 5.0 -1 29
- 0.8 3 4 ping 5000 ------- 0 3.0 5.0 -1 29
r 0.81004 0 4 ping 5000 ------- 0 0.0 4.0 -1 28
+ 0.81004 4 0 ping 64 ------- 0 4.0 0.0 -1 30
- 0.81004 4 0 ping 64 ------- 0 4.0 0.0 -1 30
r 0.8104 3 4 ping 5000 ------- 0 3.0 5.0 -1 29
+ 0.8104 4 5 ping 5000 ------- 0 3.0 5.0 -1 29
- 0.8104 4 5 ping 5000 ------- 0 3.0 5.0 -1 29
r 0.82004 4 0 ping 64 ------- 0 4.0 0.0 -1 30
r 0.8224 4 5 ping 5000 ------- 0 3.0 5.0 -1 29
+ 0.8224 5 4 ping 64 ------- 0 5.0 3.0 -1 31
- 0.8224 5 4 ping 64 ------- 0 5.0 3.0 -1 31
r 0.832426 5 4 ping 64 ------- 0 5.0 3.0 -1 31
+ 0.832426 4 3 ping 64 ------- 0 5.0 3.0 -1 31
- 0.832426 4 3 ping 64 ------- 0 5.0 3.0 -1 31
r 0.842431 4 3 ping 64 ------- 0 5.0 3.0 -1 31
+ 0.9 0 4 ping 5000 ------- 0 0.0 4.0 -1 32
- 0.9 0 4 ping 5000 ------- 0 0.0 4.0 -1 32
+ 0.9 3 4 ping 5000 ------- 0 3.0 5.0 -1 33
- 0.9 3 4 ping 5000 ------- 0 3.0 5.0 -1 33
r 0.91004 0 4 ping 5000 ------- 0 0.0 4.0 -1 32
+ 0.91004 4 0 ping 64 ------- 0 4.0 0.0 -1 34
- 0.91004 4 0 ping 64 ------- 0 4.0 0.0 -1 34
r 0.9104 3 4 ping 5000 ------- 0 3.0 5.0 -1 33
+ 0.9104 4 5 ping 5000 ------- 0 3.0 5.0 -1 33
- 0.9104 4 5 ping 5000 ------- 0 3.0 5.0 -1 33
r 0.92004 4 0 ping 64 ------- 0 4.0 0.0 -1 34
r 0.9224 4 5 ping 5000 ------- 0 3.0 5.0 -1 33
+ 0.9224 5 4 ping 64 ------- 0 5.0 3.0 -1 35
- 0.9224 5 4 ping 64 ------- 0 5.0 3.0 -1 35
r 0.932426 5 4 ping 64 ------- 0 5.0 3.0 -1 35
+ 0.932426 4 3 ping 64 ------- 0 5.0 3.0 -1 35
- 0.932426 4 3 ping 64 ------- 0 5.0 3.0 -1 35
r 0.942431 4 3 ping 64 ------- 0 5.0 3.0 -1 35
+ 1 0 4 ping 5000 ------- 0 0.0 4.0 -1 36
- 1 0 4 ping 5000 ------- 0 0.0 4.0 -1 36
+ 1 3 4 ping 5000 ------- 0 3.0 5.0 -1 37
- 1 3 4 ping 5000 ------- 0 3.0 5.0 -1 37
r 1.01004 0 4 ping 5000 ------- 0 0.0 4.0 -1 36
+ 1.01004 4 0 ping 64 ------- 0 4.0 0.0 -1 38
- 1.01004 4 0 ping 64 ------- 0 4.0 0.0 -1 38
r 1.0104 3 4 ping 5000 ------- 0 3.0 5.0 -1 37
+ 1.0104 4 5 ping 5000 ------- 0 3.0 5.0 -1 37
- 1.0104 4 5 ping 5000 ------- 0 3.0 5.0 -1 37
r 1.02004 4 0 ping 64 ------- 0 4.0 0.0 -1 38
r 1.0224 4 5 ping 5000 ------- 0 3.0 5.0 -1 37
+ 1.0224 5 4 ping 64 ------- 0 5.0 3.0 -1 39
- 1.0224 5 4 ping 64 ------- 0 5.0 3.0 -1 39
r 1.032426 5 4 ping 64 ------- 0 5.0 3.0 -1 39
+ 1.032426 4 3 ping 64 ------- 0 5.0 3.0 -1 39
- 1.032426 4 3 ping 64 ------- 0 5.0 3.0 -1 39
r 1.042431 4 3 ping 64 ------- 0 5.0 3.0 -1 39
+ 1.1 0 4 ping 5000 ------- 0 0.0 4.0 -1 40
- 1.1 0 4 ping 5000 ------- 0 0.0 4.0 -1 40
+ 1.1 3 4 ping 5000 ------- 0 3.0 5.0 -1 41
- 1.1 3 4 ping 5000 ------- 0 3.0 5.0 -1 41
r 1.11004 0 4 ping 5000 ------- 0 0.0 4.0 -1 40
+ 1.11004 4 0 ping 64 ------- 0 4.0 0.0 -1 42
- 1.11004 4 0 ping 64 ------- 0 4.0 0.0 -1 42
r 1.1104 3 4 ping 5000 ------- 0 3.0 5.0 -1 41
+ 1.1104 4 5 ping 5000 ------- 0 3.0 5.0 -1 41
- 1.1104 4 5 ping 5000 ------- 0 3.0 5.0 -1 41
r 1.12004 4 0 ping 64 ------- 0 4.0 0.0 -1 42
r 1.1224 4 5 ping 5000 ------- 0 3.0 5.0 -1 41
+ 1.1224 5 4 ping 64 ------- 0 5.0 3.0 -1 43
- 1.1224 5 4 ping 64 ------- 0 5.0 3.0 -1 43
r 1.132426 5 4 ping 64 ------- 0 5.0 3.0 -1 43
+ 1.132426 4 3 ping 64 ------- 0 5.0 3.0 -1 43
- 1.132426 4 3 ping 64 ------- 0 5.0 3.0 -1 43
r 1.142431 4 3 ping 64 ------- 0 5.0 3.0 -1 43
+ 1.2 0 4 ping 5000 ------- 0 0.0 4.0 -1 44
- 1.2 0 4 ping 5000 ------- 0 0.0 4.0 -1 44
+ 1.2 3 4 ping 5000 ------- 0 3.0 5.0 -1 45
- 1.2 3 4 ping 5000 ------- 0 3.0 5.0 -1 45
r 1.21004 0 4 ping 5000 ------- 0 0.0 4.0 -1 44
+ 1.21004 4 0 ping 64 ------- 0 4.0 0.0 -1 46
- 1.21004 4 0 ping 64 ------- 0 4.0 0.0 -1 46
r 1.2104 3 4 ping 5000 ------- 0 3.0 5.0 -1 45
+ 1.2104 4 5 ping 5000 ------- 0 3.0 5.0 -1 45
- 1.2104 4 5 ping 5000 ------- 0 3.0 5.0 -1 45
r 1.22004 4 0 ping 64 ------- 0 4.0 0.0 -1 46
r 1.2224 4 5 ping 5000 ------- 0 3.0 5.0 -1 45
+ 1.2224 5 4 ping 64 ------- 0 5.0 3.0 -1 47
- 1.2224 5 4 ping 64 ------- 0 5.0 3.0 -1 47
r 1.232426 5 4 ping 64 ------- 0 5.0 3.0 -1 47
+ 1.232426 4 3 ping 64 ------- 0 5.0 3.0 -1 47
- 1.232426 4 3 ping 64 ------- 0 5.0 3.0 -1 47
r 1.242431 4 3 ping 64 ------- 0 5.0 3.0 -1 47
+ 1.3 0 4 ping 5000 ------- 0 0.0 4.0 -1 48
- 1.3 0 4 ping 5000 ------- 0 0.0 4.0 -1 48
+ 1.3 3 4 ping 5000 ------- 0 3.0 5.0 -1 49
- 1.3 3 4 ping 5000 ------- 0 3.0 5.0 -1 49
r 1.31004 0 4 ping 5000 ------- 0 0.0 4.0 -1 48
+ 1.31004 4 0 ping 64 ------- 0 4.0 0.0 -1 50
- 1.31004 4 0 ping 64 ------- 0 4.0 0.0 -1 50
r 1.3104 3 4 ping 5000 ------- 0 3.0 5.0 -1 49
+ 1.3104 4 5 ping 5000 ------- 0 3.0 5.0 -1 49
- 1.3104 4 5 ping 5000 ------- 0 3.0 5.0 -1 49
r 1.32004 4 0 ping 64 ------- 0 4.0 0.0 -1 50
r 1.3224 4 5 ping 5000 ------- 0 3.0 5.0 -1 49
+ 1.3224 5 4 ping 64 ------- 0 5.0 3.0 -1 51
- 1.3224 5 4 ping 64 ------- 0 5.0 3.0 -1 51
r 1.332426 5 4 ping 64 ------- 0 5.0 3.0 -1 51
+ 1.332426 4 3 ping 64 ------- 0 5.0 3.0 -1 51
- 1.332426 4 3 ping 64 ------- 0 5.0 3.0 -1 51
r 1.342431 4 3 ping 64 ------- 0 5.0 3.0 -1 51
+ 1.4 0 4 ping 5000 ------- 0 0.0 4.0 -1 52
- 1.4 0 4 ping 5000 ------- 0 0.0 4.0 -1 52
+ 1.4 3 4 ping 5000 ------- 0 3.0 5.0 -1 53
- 1.4 3 4 ping 5000 ------- 0 3.0 5.0 -1 53
r 1.41004 0 4 ping 5000 ------- 0 0.0 4.0 -1 52
+ 1.41004 4 0 ping 64 ------- 0 4.0 0.0 -1 54
- 1.41004 4 0 ping 64 ------- 0 4.0 0.0 -1 54
r 1.4104 3 4 ping 5000 ------- 0 3.0 5.0 -1 53
+ 1.4104 4 5 ping 5000 ------- 0 3.0 5.0 -1 53
- 1.4104 4 5 ping 5000 ------- 0 3.0 5.0 -1 53
r 1.42004 4 0 ping 64 ------- 0 4.0 0.0 -1 54
r 1.4224 4 5 ping 5000 ------- 0 3.0 5.0 -1 53
+ 1.4224 5 4 ping 64 ------- 0 5.0 3.0 -1 55
- 1.4224 5 4 ping 64 ------- 0 5.0 3.0 -1 55
r 1.432426 5 4 ping 64 ------- 0 5.0 3.0 -1 55
+ 1.432426 4 3 ping 64 ------- 0 5.0 3.0 -1 55
- 1.432426 4 3 ping 64 ------- 0 5.0 3.0 -1 55
r 1.442431 4 3 ping 64 ------- 0 5.0 3.0 -1 55
+ 1.5 0 4 ping 5000 ------- 0 0.0 4.0 -1 56
- 1.5 0 4 ping 5000 ------- 0 0.0 4.0 -1 56
+ 1.5 3 4 ping 5000 ------- 0 3.0 5.0 -1 57
- 1.5 3 4 ping 5000 ------- 0 3.0 5.0 -1 57
r 1.51004 0 4 ping 5000 ------- 0 0.0 4.0 -1 56
+ 1.51004 4 0 ping 64 ------- 0 4.0 0.0 -1 58
- 1.51004 4 0 ping 64 ------- 0 4.0 0.0 -1 58
r 1.5104 3 4 ping 5000 ------- 0 3.0 5.0 -1 57
+ 1.5104 4 5 ping 5000 ------- 0 3.0 5.0 -1 57
- 1.5104 4 5 ping 5000 ------- 0 3.0 5.0 -1 57
r 1.52004 4 0 ping 64 ------- 0 4.0 0.0 -1 58
r 1.5224 4 5 ping 5000 ------- 0 3.0 5.0 -1 57
+ 1.5224 5 4 ping 64 ------- 0 5.0 3.0 -1 59
- 1.5224 5 4 ping 64 ------- 0 5.0 3.0 -1 59
r 1.532426 5 4 ping 64 ------- 0 5.0 3.0 -1 59
+ 1.532426 4 3 ping 64 ------- 0 5.0 3.0 -1 59
- 1.532426 4 3 ping 64 ------- 0 5.0 3.0 -1 59
r 1.542431 4 3 ping 64 ------- 0 5.0 3.0 -1 59
+ 1.6 0 4 ping 5000 ------- 0 0.0 4.0 -1 60
- 1.6 0 4 ping 5000 ------- 0 0.0 4.0 -1 60
+ 1.6 3 4 ping 5000 ------- 0 3.0 5.0 -1 61
- 1.6 3 4 ping 5000 ------- 0 3.0 5.0 -1 61
r 1.61004 0 4 ping 5000 ------- 0 0.0 4.0 -1 60
+ 1.61004 4 0 ping 64 ------- 0 4.0 0.0 -1 62
- 1.61004 4 0 ping 64 ------- 0 4.0 0.0 -1 62
r 1.6104 3 4 ping 5000 ------- 0 3.0 5.0 -1 61
+ 1.6104 4 5 ping 5000 ------- 0 3.0 5.0 -1 61
- 1.6104 4 5 ping 5000 ------- 0 3.0 5.0 -1 61
r 1.62004 4 0 ping 64 ------- 0 4.0 0.0 -1 62
r 1.6224 4 5 ping 5000 ------- 0 3.0 5.0 -1 61
+ 1.6224 5 4 ping 64 ------- 0 5.0 3.0 -1 63
- 1.6224 5 4 ping 64 ------- 0 5.0 3.0 -1 63
r 1.632426 5 4 ping 64 ------- 0 5.0 3.0 -1 63
+ 1.632426 4 3 ping 64 ------- 0 5.0 3.0 -1 63
- 1.632426 4 3 ping 64 ------- 0 5.0 3.0 -1 63
r 1.642431 4 3 ping 64 ------- 0 5.0 3.0 -1 63
+ 1.7 0 4 ping 5000 ------- 0 0.0 4.0 -1 64
- 1.7 0 4 ping 5000 ------- 0 0.0 4.0 -1 64
+ 1.7 3 4 ping 5000 ------- 0 3.0 5.0 -1 65
- 1.7 3 4 ping 5000 ------- 0 3.0 5.0 -1 65
r 1.71004 0 4 ping 5000 ------- 0 0.0 4.0 -1 64
+ 1.71004 4 0 ping 64 ------- 0 4.0 0.0 -1 66
- 1.71004 4 0 ping 64 ------- 0 4.0 0.0 -1 66
r 1.7104 3 4 ping 5000 ------- 0 3.0 5.0 -1 65
+ 1.7104 4 5 ping 5000 ------- 0 3.0 5.0 -1 65
- 1.7104 4 5 ping 5000 ------- 0 3.0 5.0 -1 65
r 1.72004 4 0 ping 64 ------- 0 4.0 0.0 -1 66
r 1.7224 4 5 ping 5000 ------- 0 3.0 5.0 -1 65
+ 1.7224 5 4 ping 64 ------- 0 5.0 3.0 -1 67
- 1.7224 5 4 ping 64 ------- 0 5.0 3.0 -1 67
r 1.732426 5 4 ping 64 ------- 0 5.0 3.0 -1 67
+ 1.732426 4 3 ping 64 ------- 0 5.0 3.0 -1 67
- 1.732426 4 3 ping 64 ------- 0 5.0 3.0 -1 67
r 1.742431 4 3 ping 64 ------- 0 5.0 3.0 -1 67
+ 1.8 0 4 ping 5000 ------- 0 0.0 4.0 -1 68
- 1.8 0 4 ping 5000 ------- 0 0.0 4.0 -1 68
+ 1.8 3 4 ping 5000 ------- 0 3.0 5.0 -1 69
- 1.8 3 4 ping 5000 ------- 0 3.0 5.0 -1 69
r 1.81004 0 4 ping 5000 ------- 0 0.0 4.0 -1 68
+ 1.81004 4 0 ping 64 ------- 0 4.0 0.0 -1 70
- 1.81004 4 0 ping 64 ------- 0 4.0 0.0 -1 70
r 1.8104 3 4 ping 5000 ------- 0 3.0 5.0 -1 69
+ 1.8104 4 5 ping 5000 ------- 0 3.0 5.0 -1 69
- 1.8104 4 5 ping 5000 ------- 0 3.0 5.0 -1 69
r 1.82004 4 0 ping 64 ------- 0 4.0 0.0 -1 70
r 1.8224 4 5 ping 5000 ------- 0 3.0 5.0 -1 69
+ 1.8224 5 4 ping 64 ------- 0 5.0 3.0 -1 71
- 1.8224 5 4 ping 64 ------- 0 5.0 3.0 -1 71
r 1.832426 5 4 ping 64 ------- 0 5.0 3.0 -1 71
+ 1.832426 4 3 ping 64 ------- 0 5.0 3.0 -1 71
- 1.832426 4 3 ping 64 ------- 0 5.0 3.0 -1 71
r 1.842431 4 3 ping 64 ------- 0 5.0 3.0 -1 71
+ 1.9 0 4 ping 5000 ------- 0 0.0 4.0 -1 72
- 1.9 0 4 ping 5000 ------- 0 0.0 4.0 -1 72
+ 1.9 3 4 ping 5000 ------- 0 3.0 5.0 -1 73
- 1.9 3 4 ping 5000 ------- 0 3.0 5.0 -1 73
r 1.91004 0 4 ping 5000 ------- 0 0.0 4.0 -1 72
+ 1.91004 4 0 ping 64 ------- 0 4.0 0.0 -1 74
- 1.91004 4 0 ping 64 ------- 0 4.0 0.0 -1 74
r 1.9104 3 4 ping 5000 ------- 0 3.0 5.0 -1 73
+ 1.9104 4 5 ping 5000 ------- 0 3.0 5.0 -1 73
- 1.9104 4 5 ping 5000 ------- 0 3.0 5.0 -1 73
r 1.92004 4 0 ping 64 ------- 0 4.0 0.0 -1 74
r 1.9224 4 5 ping 5000 ------- 0 3.0 5.0 -1 73
+ 1.9224 5 4 ping 64 ------- 0 5.0 3.0 -1 75
- 1.9224 5 4 ping 64 ------- 0 5.0 3.0 -1 75
r 1.932426 5 4 ping 64 ------- 0 5.0 3.0 -1 75
+ 1.932426 4 3 ping 64 ------- 0 5.0 3.0 -1 75
- 1.932426 4 3 ping 64 ------- 0 5.0 3.0 -1 75
r 1.942431 4 3 ping 64 ------- 0 5.0 3.0 -1 75
+ 2 0 4 ping 5000 ------- 0 0.0 4.0 -1 76
- 2 0 4 ping 5000 ------- 0 0.0 4.0 -1 76
+ 2 3 4 ping 5000 ------- 0 3.0 5.0 -1 77
- 2 3 4 ping 5000 ------- 0 3.0 5.0 -1 77
r 2.01004 0 4 ping 5000 ------- 0 0.0 4.0 -1 76
+ 2.01004 4 0 ping 64 ------- 0 4.0 0.0 -1 78
- 2.01004 4 0 ping 64 ------- 0 4.0 0.0 -1 78
r 2.0104 3 4 ping 5000 ------- 0 3.0 5.0 -1 77
+ 2.0104 4 5 ping 5000 ------- 0 3.0 5.0 -1 77
- 2.0104 4 5 ping 5000 ------- 0 3.0 5.0 -1 77
r 2.02004 4 0 ping 64 ------- 0 4.0 0.0 -1 78
r 2.0224 4 5 ping 5000 ------- 0 3.0 5.0 -1 77
+ 2.0224 5 4 ping 64 ------- 0 5.0 3.0 -1 79
- 2.0224 5 4 ping 64 ------- 0 5.0 3.0 -1 79
r 2.032426 5 4 ping 64 ------- 0 5.0 3.0 -1 79
+ 2.032426 4 3 ping 64 ------- 0 5.0 3.0 -1 79
- 2.032426 4 3 ping 64 ------- 0 5.0 3.0 -1 79
r 2.042431 4 3 ping 64 ------- 0 5.0 3.0 -1 79
+ 2.1 0 4 ping 5000 ------- 0 0.0 4.0 -1 80
- 2.1 0 4 ping 5000 ------- 0 0.0 4.0 -1 80
+ 2.1 3 4 ping 5000 ------- 0 3.0 5.0 -1 81
- 2.1 3 4 ping 5000 ------- 0 3.0 5.0 -1 81
r 2.11004 0 4 ping 5000 ------- 0 0.0 4.0 -1 80
+ 2.11004 4 0 ping 64 ------- 0 4.0 0.0 -1 82
- 2.11004 4 0 ping 64 ------- 0 4.0 0.0 -1 82
r 2.1104 3 4 ping 5000 ------- 0 3.0 5.0 -1 81
+ 2.1104 4 5 ping 5000 ------- 0 3.0 5.0 -1 81
- 2.1104 4 5 ping 5000 ------- 0 3.0 5.0 -1 81
r 2.12004 4 0 ping 64 ------- 0 4.0 0.0 -1 82
r 2.1224 4 5 ping 5000 ------- 0 3.0 5.0 -1 81
+ 2.1224 5 4 ping 64 ------- 0 5.0 3.0 -1 83
- 2.1224 5 4 ping 64 ------- 0 5.0 3.0 -1 83
r 2.132426 5 4 ping 64 ------- 0 5.0 3.0 -1 83
+ 2.132426 4 3 ping 64 ------- 0 5.0 3.0 -1 83
- 2.132426 4 3 ping 64 ------- 0 5.0 3.0 -1 83
r 2.142431 4 3 ping 64 ------- 0 5.0 3.0 -1 83
+ 2.2 0 4 ping 5000 ------- 0 0.0 4.0 -1 84
- 2.2 0 4 ping 5000 ------- 0 0.0 4.0 -1 84
+ 2.2 3 4 ping 5000 ------- 0 3.0 5.0 -1 85
- 2.2 3 4 ping 5000 ------- 0 3.0 5.0 -1 85
r 2.21004 0 4 ping 5000 ------- 0 0.0 4.0 -1 84
+ 2.21004 4 0 ping 64 ------- 0 4.0 0.0 -1 86
- 2.21004 4 0 ping 64 ------- 0 4.0 0.0 -1 86
r 2.2104 3 4 ping 5000 ------- 0 3.0 5.0 -1 85
+ 2.2104 4 5 ping 5000 ------- 0 3.0 5.0 -1 85
- 2.2104 4 5 ping 5000 ------- 0 3.0 5.0 -1 85
r 2.22004 4 0 ping 64 ------- 0 4.0 0.0 -1 86
r 2.2224 4 5 ping 5000 ------- 0 3.0 5.0 -1 85
+ 2.2224 5 4 ping 64 ------- 0 5.0 3.0 -1 87
- 2.2224 5 4 ping 64 ------- 0 5.0 3.0 -1 87
r 2.232426 5 4 ping 64 ------- 0 5.0 3.0 -1 87
+ 2.232426 4 3 ping 64 ------- 0 5.0 3.0 -1 87
- 2.232426 4 3 ping 64 ------- 0 5.0 3.0 -1 87
r 2.242431 4 3 ping 64 ------- 0 5.0 3.0 -1 87
+ 2.3 0 4 ping 5000 ------- 0 0.0 4.0 -1 88
- 2.3 0 4 ping 5000 ------- 0 0.0 4.0 -1 88
+ 2.3 3 4 ping 5000 ------- 0 3.0 5.0 -1 89
- 2.3 3 4 ping 5000 ------- 0 3.0 5.0 -1 89
r 2.31004 0 4 ping 5000 ------- 0 0.0 4.0 -1 88
+ 2.31004 4 0 ping 64 ------- 0 4.0 0.0 -1 90
- 2.31004 4 0 ping 64 ------- 0 4.0 0.0 -1 90
r 2.3104 3 4 ping 5000 ------- 0 3.0 5.0 -1 89
+ 2.3104 4 5 ping 5000 ------- 0 3.0 5.0 -1 89
- 2.3104 4 5 ping 5000 ------- 0 3.0 5.0 -1 89
r 2.32004 4 0 ping 64 ------- 0 4.0 0.0 -1 90
r 2.3224 4 5 ping 5000 ------- 0 3.0 5.0 -1 89
+ 2.3224 5 4 ping 64 ------- 0 5.0 3.0 -1 91
- 2.3224 5 4 ping 64 ------- 0 5.0 3.0 -1 91
r 2.332426 5 4 ping 64 ------- 0 5.0 3.0 -1 91
+ 2.332426 4 3 ping 64 ------- 0 5.0 3.0 -1 91
- 2.332426 4 3 ping 64 ------- 0 5.0 3.0 -1 91
r 2.342431 4 3 ping 64 ------- 0 5.0 3.0 -1 91
+ 2.4 0 4 ping 5000 ------- 0 0.0 4.0 -1 92
- 2.4 0 4 ping 5000 ------- 0 0.0 4.0 -1 92
+ 2.4 3 4 ping 5000 ------- 0 3.0 5.0 -1 93
- 2.4 3 4 ping 5000 ------- 0 3.0 5.0 -1 93
r 2.41004 0 4 ping 5000 ------- 0 0.0 4.0 -1 92
+ 2.41004 4 0 ping 64 ------- 0 4.0 0.0 -1 94
- 2.41004 4 0 ping 64 ------- 0 4.0 0.0 -1 94
r 2.4104 3 4 ping 5000 ------- 0 3.0 5.0 -1 93
+ 2.4104 4 5 ping 5000 ------- 0 3.0 5.0 -1 93
- 2.4104 4 5 ping 5000 ------- 0 3.0 5.0 -1 93
r 2.42004 4 0 ping 64 ------- 0 4.0 0.0 -1 94
r 2.4224 4 5 ping 5000 ------- 0 3.0 5.0 -1 93
+ 2.4224 5 4 ping 64 ------- 0 5.0 3.0 -1 95
- 2.4224 5 4 ping 64 ------- 0 5.0 3.0 -1 95
r 2.432426 5 4 ping 64 ------- 0 5.0 3.0 -1 95
+ 2.432426 4 3 ping 64 ------- 0 5.0 3.0 -1 95
- 2.432426 4 3 ping 64 ------- 0 5.0 3.0 -1 95
r 2.442431 4 3 ping 64 ------- 0 5.0 3.0 -1 95
+ 2.5 0 4 ping 5000 ------- 0 0.0 4.0 -1 96
- 2.5 0 4 ping 5000 ------- 0 0.0 4.0 -1 96
+ 2.5 3 4 ping 5000 ------- 0 3.0 5.0 -1 97
- 2.5 3 4 ping 5000 ------- 0 3.0 5.0 -1 97
r 2.51004 0 4 ping 5000 ------- 0 0.0 4.0 -1 96
+ 2.51004 4 0 ping 64 ------- 0 4.0 0.0 -1 98
- 2.51004 4 0 ping 64 ------- 0 4.0 0.0 -1 98
r 2.5104 3 4 ping 5000 ------- 0 3.0 5.0 -1 97
+ 2.5104 4 5 ping 5000 ------- 0 3.0 5.0 -1 97
- 2.5104 4 5 ping 5000 ------- 0 3.0 5.0 -1 97
r 2.52004 4 0 ping 64 ------- 0 4.0 0.0 -1 98
r 2.5224 4 5 ping 5000 ------- 0 3.0 5.0 -1 97
+ 2.5224 5 4 ping 64 ------- 0 5.0 3.0 -1 99
- 2.5224 5 4 ping 64 ------- 0 5.0 3.0 -1 99
r 2.532426 5 4 ping 64 ------- 0 5.0 3.0 -1 99
+ 2.532426 4 3 ping 64 ------- 0 5.0 3.0 -1 99
- 2.532426 4 3 ping 64 ------- 0 5.0 3.0 -1 99
r 2.542431 4 3 ping 64 ------- 0 5.0 3.0 -1 99
+ 2.6 0 4 ping 5000 ------- 0 0.0 4.0 -1 100
- 2.6 0 4 ping 5000 ------- 0 0.0 4.0 -1 100
+ 2.6 3 4 ping 5000 ------- 0 3.0 5.0 -1 101
- 2.6 3 4 ping 5000 ------- 0 3.0 5.0 -1 101
r 2.61004 0 4 ping 5000 ------- 0 0.0 4.0 -1 100
+ 2.61004 4 0 ping 64 ------- 0 4.0 0.0 -1 102
- 2.61004 4 0 ping 64 ------- 0 4.0 0.0 -1 102
r 2.6104 3 4 ping 5000 ------- 0 3.0 5.0 -1 101
+ 2.6104 4 5 ping 5000 ------- 0 3.0 5.0 -1 101
- 2.6104 4 5 ping 5000 ------- 0 3.0 5.0 -1 101
r 2.62004 4 0 ping 64 ------- 0 4.0 0.0 -1 102
r 2.6224 4 5 ping 5000 ------- 0 3.0 5.0 -1 101
+ 2.6224 5 4 ping 64 ------- 0 5.0 3.0 -1 103
- 2.6224 5 4 ping 64 ------- 0 5.0 3.0 -1 103
r 2.632426 5 4 ping 64 ------- 0 5.0 3.0 -1 103
+ 2.632426 4 3 ping 64 ------- 0 5.0 3.0 -1 103
- 2.632426 4 3 ping 64 ------- 0 5.0 3.0 -1 103
r 2.642431 4 3 ping 64 ------- 0 5.0 3.0 -1 103
+ 2.7 0 4 ping 5000 ------- 0 0.0 4.0 -1 104
- 2.7 0 4 ping 5000 ------- 0 0.0 4.0 -1 104
+ 2.7 3 4 ping 5000 ------- 0 3.0 5.0 -1 105
- 2.7 3 4 ping 5000 ------- 0 3.0 5.0 -1 105
r 2.71004 0 4 ping 5000 ------- 0 0.0 4.0 -1 104
+ 2.71004 4 0 ping 64 ------- 0 4.0 0.0 -1 106
- 2.71004 4 0 ping 64 ------- 0 4.0 0.0 -1 106
r 2.7104 3 4 ping 5000 ------- 0 3.0 5.0 -1 105
+ 2.7104 4 5 ping 5000 ------- 0 3.0 5.0 -1 105
- 2.7104 4 5 ping 5000 ------- 0 3.0 5.0 -1 105
r 2.72004 4 0 ping 64 ------- 0 4.0 0.0 -1 106
r 2.7224 4 5 ping 5000 ------- 0 3.0 5.0 -1 105
+ 2.7224 5 4 ping 64 ------- 0 5.0 3.0 -1 107
- 2.7224 5 4 ping 64 ------- 0 5.0 3.0 -1 107
r 2.732426 5 4 ping 64 ------- 0 5.0 3.0 -1 107
+ 2.732426 4 3 ping 64 ------- 0 5.0 3.0 -1 107
- 2.732426 4 3 ping 64 ------- 0 5.0 3.0 -1 107
r 2.742431 4 3 ping 64 ------- 0 5.0 3.0 -1 107
+ 2.8 0 4 ping 5000 ------- 0 0.0 4.0 -1 108
- 2.8 0 4 ping 5000 ------- 0 0.0 4.0 -1 108
+ 2.8 3 4 ping 5000 ------- 0 3.0 5.0 -1 109
- 2.8 3 4 ping 5000 ------- 0 3.0 5.0 -1 109
r 2.81004 0 4 ping 5000 ------- 0 0.0 4.0 -1 108
+ 2.81004 4 0 ping 64 ------- 0 4.0 0.0 -1 110
- 2.81004 4 0 ping 64 ------- 0 4.0 0.0 -1 110
r 2.8104 3 4 ping 5000 ------- 0 3.0 5.0 -1 109
+ 2.8104 4 5 ping 5000 ------- 0 3.0 5.0 -1 109
- 2.8104 4 5 ping 5000 ------- 0 3.0 5.0 -1 109
r 2.82004 4 0 ping 64 ------- 0 4.0 0.0 -1 110
r 2.8224 4 5 ping 5000 ------- 0 3.0 5.0 -1 109
+ 2.8224 5 4 ping 64 ------- 0 5.0 3.0 -1 111
- 2.8224 5 4 ping 64 ------- 0 5.0 3.0 -1 111
r 2.832426 5 4 ping 64 ------- 0 5.0 3.0 -1 111
+ 2.832426 4 3 ping 64 ------- 0 5.0 3.0 -1 111
- 2.832426 4 3 ping 64 ------- 0 5.0 3.0 -1 111
r 2.842431 4 3 ping 64 ------- 0 5.0 3.0 -1 111
+ 2.9 0 4 ping 5000 ------- 0 0.0 4.0 -1 112
- 2.9 0 4 ping 5000 ------- 0 0.0 4.0 -1 112
+ 2.9 3 4 ping 5000 ------- 0 3.0 5.0 -1 113
- 2.9 3 4 ping 5000 ------- 0 3.0 5.0 -1 113
r 2.91004 0 4 ping 5000 ------- 0 0.0 4.0 -1 112
+ 2.91004 4 0 ping 64 ------- 0 4.0 0.0 -1 114
- 2.91004 4 0 ping 64 ------- 0 4.0 0.0 -1 114
r 2.9104 3 4 ping 5000 ------- 0 3.0 5.0 -1 113
+ 2.9104 4 5 ping 5000 ------- 0 3.0 5.0 -1 113
- 2.9104 4 5 ping 5000 ------- 0 3.0 5.0 -1 113
r 2.92004 4 0 ping 64 ------- 0 4.0 0.0 -1 114
r 2.9224 4 5 ping 5000 ------- 0 3.0 5.0 -1 113
+ 2.9224 5 4 ping 64 ------- 0 5.0 3.0 -1 115
- 2.9224 5 4 ping 64 ------- 0 5.0 3.0 -1 115
r 2.932426 5 4 ping 64 ------- 0 5.0 3.0 -1 115
+ 2.932426 4 3 ping 64 ------- 0 5.0 3.0 -1 115
- 2.932426 4 3 ping 64 ------- 0 5.0 3.0 -1 115
r 2.942431 4 3 ping 64 ------- 0 5.0 3.0 -1 115
